TITLE : Created by VMD with 45595 atoms                                         
 45595
 131.2169952  82.1770020  65.1009979 130.9210052  81.9639969  64.1269989
 131.8260040  81.3980026  65.4240036 131.8079987  83.0329971  65.0889969
 130.0299988  82.3330002  66.0410004 129.6690063  81.3330002  66.2310028
 130.4980011  82.9140015  67.4160004 129.6130066  83.2399979  68.0029984
 131.1170044  83.8199997  67.2440033 131.4089966  81.6920013  68.4319992
 131.5820007  82.4680023  69.4909973 128.7799988  83.0619965  65.5279999
 127.7020035  82.8889999  66.0989990 128.8480072  83.8479996  64.4209976
 129.7169952  84.1900024  64.0709991 127.6760025  84.3280029  63.6879997
 126.9980011  84.7779999  64.3970032 128.0279999  85.4039993  62.6220016
 127.1999969  85.5299988  61.8919983 128.9250031  85.0670013  62.0589981
 127.3020020  87.5800018  63.7179985 126.3560028  87.3170013  63.9049988
 128.2830048  86.7829971  63.1640015 127.8470001  88.8079987  63.9129982
 127.2819977  89.6370010  64.3379974 129.1060028  88.8610001  63.5089989
 129.3820038  87.5820007  63.0390015 130.3480072  87.3420029  62.6119995
 126.8960037  83.2040024  62.9980011 126.9720001  82.9909973  61.7849998
 126.1220016  82.4489975  63.7929993 126.1699982  82.6039963  64.7770004
 125.2009964  81.4250031  63.3720016 125.7659988  80.6859970  62.8230019
 124.5790024  80.7699966  64.6169968 123.9540024  81.5000000  65.1740036
 125.3750000  80.4110031  65.3030014 123.9400024  79.9049988  64.3379974
 124.0739975  81.9189987  62.4690018 123.5910034  83.0490036  62.5830002
 123.5950012  81.0459976  61.5550003 124.0469971  80.1709976  61.4010010
 122.2809982  81.1969986  60.9519997 122.2409973  82.1689987  60.4819984
 121.9980011  80.1179962  59.8720016 120.9459991  80.2170029  59.5279999
 122.1110001  79.1100006  60.3230019 122.9169998  80.2419968  58.6320000
 123.9749985  80.0500031  58.9129982 122.8499985  81.2750015  58.2299995
 122.5350037  79.2610016  57.5260010 122.1090012  79.7160034  56.4290009
 122.6640015  78.0230026  57.7299995 121.1780014  81.1589966  62.0120010
 121.3020020  80.4769974  63.0330009 120.0749969  81.9169998  61.8240013
 119.9649963  82.4789963  61.0079994 119.0120010  81.9889984  62.8209991
 119.4749985  81.9940033  63.7970009 118.1849976  83.2730026  62.7560005
 117.6250000  83.3239975  61.7980003 117.1910019  83.3300018  63.9379997
 117.7330017  83.2440033  64.9039993 116.4319992  82.5210037  63.8810005
 116.6520004  84.3020020  63.9290009 119.1370010  84.4810028  62.8429985
 119.8150024  84.5309982  61.9640007 119.7519989  84.4199982  63.7669983
 118.5520020  85.4250031  62.8759995 118.1289978  80.7440033  62.7669983
 117.0559998  80.7070007  62.1590004 118.6039963  79.6559982  63.4029999
 119.5319977  79.6839981  63.7680016 117.8850021  78.4130020  63.5680008
 117.5000000  78.1210022  62.6020012 118.7900009  77.2760010  64.1119995
 118.1849976  76.3519974  64.2369995 119.1709976  77.5670013  65.1139984
 120.0049973  76.9260025  63.2260017 120.6419983  77.8300018  63.1250000
 120.8529968  75.8379974  63.9000015 120.2590027  74.9069977  64.0260010
 121.1959991  76.1740036  64.9020004 121.7480011  75.6039963  63.2849998
 119.5899963  76.4749985  61.8180008 119.0609970  77.2900009  61.2789993
 118.9179993  75.5920029  61.8779984 120.4869995  76.1930008  61.2260017
 116.6920013  78.5790024  64.4950027 116.8229980  78.8320007  65.6959991
 115.4729996  78.4390030  63.9459991 115.3489990  78.2850037  62.9690018
 114.2580032  78.5240021  64.7350006 114.3990021  79.2620010  65.5110016
 113.0169983  78.9660034  63.9529991 112.0899963  78.8140030  64.5459976
 112.9039993  78.3050003  62.6899986 112.7620010  77.3730011  62.8730011
 113.1490021  80.4720001  63.6650009 114.0530014  80.6800003  63.0550003
 113.2239990  81.0449982  64.6139984 112.2590027  80.8369980  63.1090012
 113.9609985  77.2109985  65.4290009 113.6890030  76.1869965  64.8000031
 113.9619980  77.2200012  66.7789993 114.2979965  78.0149994  67.2779999
 113.2770004  76.2170029  67.5790024 113.6529999  75.2500000  67.2770004
 113.5199966  76.4260025  69.1029968 112.9089966  75.7190018  69.7040024
 113.2429962  77.4589996  69.4029999 114.9729996  76.1979980  69.4420013
 115.4010010  74.9290009  69.8700027 114.6849976  74.1240005  69.9489975
 116.7470016  74.6920013  70.1839981 117.0530014  73.7060013  70.5029984
 117.6829987  75.7279968  70.0739975 119.0500031  75.4970016  70.3600006
 119.1679993  74.5680008  70.5709991 115.9160004  77.2409973  69.3779984
 115.6060028  78.2310028  69.0790024 117.2659988  77.0039978  69.6770020
 117.9850006  77.8059998  69.6029968 111.7779999  76.2789993  67.2669983
 111.2990036  77.3909988  67.0149994 110.9940033  75.1959991  67.2119980
 111.4179993  73.8460007  67.5879974 112.0869980  73.8519974  68.4749985
 111.9390030  73.3840027  66.7220001 109.5579987  75.2669983  66.9380035
 109.4049988  75.7080002  65.9629974 109.0960007  73.8010025  66.9759979
 109.1809998  73.3730011  65.9540024 108.0490036  73.6780014  67.3259964
 110.1129990  73.1039963  67.8889999 109.8310013  73.2699966  68.9509964
 110.1849976  72.0120010  67.6959991 108.8570023  76.1660004  67.9499969
 108.8949966  75.8499985  69.1399994 108.2959976  77.3119965  67.4720001
 108.2570038  77.4229965  66.4820023 107.9869995  78.5419998  68.2080002
 108.8489990  79.1689987  68.0319977 106.7350006  79.2699966  67.6389999
 106.5120010  80.1800003  68.2369995 105.8550034  78.5930023  67.6829987
 106.9300003  79.7089996  66.1949997 107.9029999  79.5070038  65.4919968
 105.8440018  80.4089966  65.7160034 106.0000000  80.6760025  64.8069992
 107.8119965  78.3949966  69.7279968 106.9020004  77.6569977  70.1269989
 108.6399994  79.0319977  70.5869980 109.4499969  80.2040024  70.2450027
 108.9410019  80.8639984  69.5110016 110.4229965  79.8550034  69.8369980
 108.7639999  78.7080002  72.0110016 109.2080002  77.7249985  72.0589981
 109.7089996  79.7760010  72.5899963 110.7409973  79.3649979  72.6119995
 109.4380035  80.1029968  73.6159973 109.6510010  80.9250031  71.5790024
 108.7630005  81.5579987  71.7910004 110.5640030  81.5569992  71.5920029
 107.4380035  78.5780029  72.7389984 106.5289993  79.3730011  72.4960022
 107.3239975  77.5439987  73.5999985 108.1529999  77.0500031  73.8499985
 106.1070023  76.8519974  74.0080032 105.6119995  76.5220032  73.1070023
 106.5149994  75.6090012  74.8440018 105.6200027  75.0120010  75.1200027
 106.9860001  75.9680023  75.7839966 107.5179977  74.6409988  74.1770020
 108.4449997  75.1849976  73.8970032 107.9290009  73.5670013  75.1920013
 107.0329971  73.0169983  75.5510025 108.4359970  74.0289993  76.0650024
 108.6279984  72.8399963  74.7259979 106.9459991  73.9940033  72.9069977
 106.7229996  74.7649994  72.1380005 106.0120010  73.4380035  73.1380005
 107.6819992  73.2789993  72.4789963 105.0619965  77.6389999  74.8030014
 104.1930008  77.0699997  75.4639969 105.0930023  78.9749985  74.7519989
 105.7289963  79.3860016  74.1039963 104.2730026  79.8590012  75.5550003
 103.2699966  79.4639969  75.6119995 104.3130035  80.8320007  75.0879974
 104.7880020  80.0029984  76.9589996 105.4250031  79.1190033  77.5380020
 104.5120010  81.1709976  77.5510025 104.0619965  81.8990021  77.0400009
 104.9039993  81.5540009  78.8949966 105.9840012  81.5609970  78.9359970
 104.3690033  82.9759979  79.1849976 104.7630005  83.3550034  80.1529999
 103.2600021  82.9469986  79.2300034 104.7470016  83.8539963  78.1179962
 104.1930008  84.6380005  78.1439972 104.3809967  80.5930023  79.9520035
 103.1839981  80.3150024  80.0260010 105.2730026  80.0250015  80.7900009
 106.2389984  80.2710037  80.7809982 104.9020004  78.9309998  81.6790009
 104.0979996  78.3799973  81.2149963 106.0459976  77.9039993  81.8960037
 106.3570023  77.4970016  80.9100037 105.6859970  77.0490036  82.5070038
 107.1819992  78.4909973  82.5289993 107.7979965  78.7860031  81.8539963
 104.3870010  79.4089966  83.0299988 104.8399963  80.4039993  83.5940018
 103.3759995  78.7070007  83.5790024 103.0049973  77.9140015  83.1019974
 102.7929993  78.9759979  84.8840027 102.4970016  80.0149994  84.8980026
 101.5039978  78.1389999  85.0729980 101.1159973  78.2519989  86.1080017
 101.7610016  77.0660019  84.9430008 100.3700027  78.5199966  84.0879974
  99.5289993  77.8000031  84.1859970 100.7170029  78.4739990  83.0339966
  99.7929993  79.9029999  84.4069977  99.2119980  80.0970001  85.4779968
  99.9380035  80.8659973  83.4720001  99.5220032  81.7639999  83.6169968
 100.3199997  80.6380005  82.5759964 103.7310028  78.7870026  86.0800018
 104.5599976  77.8750000  86.1159973 103.5940018  79.6470032  87.1090012
 102.9660034  80.4189987  87.0439987 104.2089996  79.4609985  88.4169998
 105.1600037  78.9670029  88.2839966 104.4720001  80.7919998  89.1920013
 104.9919968  81.4990005  88.5100021 105.1589966  80.5989990  90.0429993
 103.2910004  81.4209976  89.7040024 102.7890015  81.7610016  88.9589996
 103.3359985  78.5599976  89.2789993 102.1969986  78.2259979  88.9400024
 103.8509979  78.1429977  90.4440002 104.7850037  78.3730011  90.7080002
 103.1729965  77.2279968  91.3330002 102.7369995  76.4420013  90.7340012
 104.1949997  76.6149979  92.3239975 103.6709976  75.9980011  93.0839996
 104.7340012  77.4369965  92.8420029 105.2269974  75.7239990  91.6289978
 105.0759964  75.4049988  90.4160004 106.1750031  75.2809982  92.3369980
 102.0070038  77.8750000  92.0910034 101.1080017  77.1890030  92.5810013
 101.9570007  79.2220001  92.1460037 102.6839981  79.7659988  91.7360001
 100.8519974  79.9570007  92.7389984 100.3470001  79.3430023  93.4700012
 101.3509979  81.2639999  93.4140015 100.5029984  81.9059982  93.7340012
 101.9759979  81.8509979  92.7070007 102.1569977  80.9479980  94.6419983
 101.5139999  80.8130035  95.8860016 100.4400024  80.9010010  95.9459991
 102.2549973  80.5699997  97.0479965 101.7490005  80.4580002  97.9960022
 103.6490021  80.4680023  96.9800034 104.2200012  80.2770004  97.8769989
 103.5589981  80.8479996  94.5869980 104.0660019  80.9589996  93.6399994
 104.3020020  80.6110001  95.7490005 105.3779984  80.5370026  95.6979980
  99.8199997  80.3440018  91.6880035  98.8079987  80.9810028  91.9909973
 100.0439987  79.9410019  90.4229965 100.8399963  79.3720016  90.2300034
  99.2919998  80.4169998  89.2760010  98.2429962  80.4749985  89.5270004
  99.4960022  79.7279968  88.4700012  99.7350006  81.7839966  88.8140030
 100.3089981  82.5899963  89.5520020  99.4940033  82.0579987  87.5240021
  98.9729996  81.4120026  86.9720001 100.0950012  83.1500015  86.7880020
 100.1439972  84.0299988  87.4120026  99.4970016  83.2870026  85.9000015
 101.4929962  82.7880020  86.3600006 102.2060013  82.0299988  87.0169983
 101.9369965  83.3000031  85.2089996 101.3479996  83.9029999  84.6760025
 103.2229996  82.9589996  84.6169968 103.2269974  81.8820038  84.5339966
 103.4150009  83.4739990  83.1989975 104.4599991  83.3359985  82.8499985
 103.0469971  84.8359985  83.0830002 102.1019974  84.8690033  83.2500000
 102.4759979  82.7099991  82.2630005 101.4179993  82.8470001  82.5719986
 102.7080002  81.6240005  82.2679977 102.5619965  83.0930023  81.2239990
 104.4369965  83.2969971  85.4720001 104.5039978  84.3399963  86.1269989
 105.4410019  82.4039993  85.5120010 105.4250031  81.5839996  84.9449997
 106.5839996  82.6090012  86.3799973 106.2379990  82.6940002  87.3990021
 107.1009979  83.4990005  86.0540009 107.5810013  81.4940033  86.3300018
 107.6060028  80.6750031  85.4140015 108.4410019  81.4400024  87.3550034
 108.3649979  82.0830002  88.1129990 109.4660034  80.4380035  87.5240021
 109.7929993  80.0910034  86.5550003 110.6790009  81.0510025  88.2639999
 111.4059982  80.2630005  88.5569992 110.3059998  81.5360031  89.1910019
 111.4449997  82.1250000  87.4560013 110.7129974  82.8040009  86.9690018
 112.2939987  82.9919968  88.3980026 112.9940033  82.3580017  88.9830017
 111.6409988  83.5400009  89.1090012 112.8820038  83.7360001  87.8199997
 112.3190002  81.4909973  86.3619995 111.7009964  80.9100037  85.6449966
 113.0690002  80.8069992  86.8140030 112.8600006  82.2779999  85.7949982
 108.8659973  79.2369995  88.2509995 108.1159973  78.4739990  87.6449966
 109.1409988  79.0309982  89.5459976 109.7570038  79.6250000  90.0569992
 108.5350037  77.9729996  90.3310013 107.8499985  77.3980026  89.7269974
 109.5899963  76.9919968  90.9089966 109.0729980  76.2149963  91.5110016
 110.2789993  77.5469971  91.5810013 110.4589996  76.2720032  89.8509979
 110.8929977  77.0339966  89.1689987 111.6360016  75.5510025  90.5260010
 111.2649994  74.7710037  91.2239990 112.2529984  76.2760010  91.0979996
 112.2809982  75.0699997  89.7600021 109.6340027  75.2829971  89.0139999
 108.8239975  75.8119965  88.4670029 109.1669998  74.5210037  89.6740036
 110.2789993  74.7630005  88.2740021 107.6800003  78.6299973  91.4110031
 106.4769974  78.8300018  91.2220001 108.2630005  79.0390015  92.5559998
 109.2490005  78.9499969  92.6750031 107.5910034  79.8960037  93.5149994
 106.5780029  79.5479965  93.6510010 108.3140030  79.8789978  94.8889999
 107.8300018  80.6039963  95.5770035 109.3610001  80.2180023  94.7429962
 108.3479996  78.5000000  95.5899963 108.9629974  78.5810013  96.5120010
 108.8349991  77.7470016  94.9349976 106.9560013  78.0169983  96.0070038
 106.4489975  78.3440018  97.0849991 106.3089981  77.1920013  95.1529999
 106.7919998  76.8489990  94.3479996 105.4039993  76.8509979  95.4079971
 107.4980011  81.3460007  93.0380020 106.5240021  82.0520020  93.3130035
 108.5100021  81.8330002  92.3000031 109.2770004  81.2480011  92.0490036
 108.6429977  83.2210007  91.9150009 108.2170029  83.8030014  92.7190018
 110.1380005  83.6129990  91.8010025 110.2310028  84.6510010  91.4150009
 110.6169968  82.9400024  91.0579987 110.9369965  83.5130005  93.1210022
 112.0059967  83.6729965  92.8629990 110.8690033  82.4759979  93.5130005
 110.4690018  84.7080002  94.4169998 109.4209976  83.6090012  95.4089966
 109.9509964  82.6610031  95.6449966 108.4830017  83.3470001  94.8730011
 109.1380005  84.0889969  96.3700027 107.8970032  83.5759964  90.6200027
 107.7789993  82.7369995  89.7220001 107.3209991  84.7699966  90.4629974
 107.4069977  85.8479996  91.4589996 108.4150009  85.9229965  91.9189987
 106.6429977  85.6660004  92.2450027 106.8690033  85.2819977  89.1660004
 106.1600037  84.5830002  88.7490005 106.2119980  86.6149979  89.5459976
 105.1910019  86.4169998  89.9359970 106.1309967  87.3450012  88.7129974
 107.0839996  87.1240005  90.6869965 108.0149994  87.5589981  90.2639999
 106.5780029  87.8830032  91.3209991 107.9660034  85.4619980  88.1110001
 109.1449966  85.2089996  88.3489990 107.5709991  85.9479980  86.9209976
 106.6029968  86.1350021  86.7730026 108.4520035  86.3820038  85.8529968
 109.3440018  86.7969971  86.2990036 108.8619995  85.2249985  84.8840027
 109.2289963  84.3730011  85.4940033 109.7139969  85.5739975  84.2610016
 107.7770004  84.7259979  83.9280014 106.6389999  85.1979980  83.8980026
 108.1380005  83.7099991  83.1110001 109.0749969  83.3619995  83.1250000
 107.4570007  83.3259964  82.4879990 107.7160034  87.5319977  85.1819992
 106.5849991  87.8359985  85.5550003 108.2929993  88.2119980  84.1780014
 109.2009964  87.9810028  83.8359985 107.6699982  89.3809967  83.5849991
 107.0530014  89.8880005  84.3119965 108.7779999  90.3160019  83.0999985
 109.3259964  89.8830032  82.2360001 109.5169983  90.4710007  83.9150009
 108.3700027  91.3040009  82.7979965 106.7979965  89.0589981  82.3919983
 106.1699982  89.9290009  81.7919998 106.7369995  87.7730026  82.0199966
 107.2350006  87.0869980  82.5429993 105.9459991  87.2779999  80.9219971
 106.1650009  87.9140015  80.0770035 106.3669968  85.8359985  80.5500031
 105.7679977  85.5029984  79.6750031 106.1350021  85.1520004  81.3949966
 107.8570023  85.6969986  80.1640015 108.0559998  84.6380005  79.8949966
 108.4909973  85.9369965  81.0439987 108.2630005  86.5960007  78.9889984
 108.0879974  87.6600037  79.2570038 107.6989975  86.3320007  78.0699997
 109.7190018  86.4079971  78.7519989 110.1900024  85.6050034  79.1159973
 110.4229965  87.1060028  77.8850021 110.0059967  88.1399994  77.1959991
 109.1060028  88.5400009  77.3679962 110.7129974  88.5879974  76.6480026
 111.6699982  86.7880020  77.6819992 112.0920029  86.1999969  78.3720016
 112.1719971  87.4509964  77.1259995 104.4410019  87.3909988  81.1159973
 103.9390030  87.4150009  82.2350006 103.6949997  87.4909973  80.0029984
 104.1220016  87.5380020  79.1029968 102.2509995  87.3259964  79.9639969
 101.8939972  86.9140015  80.8960037 101.4990005  88.6210022  79.6340027
 101.8580017  88.9830017  78.6470032  99.9779968  88.3830032  79.5240021
  99.5770035  87.9120026  80.4469986  99.7249985  87.7379990  78.6559982
  99.4540024  89.3519974  79.3740005 101.7860031  89.7539978  80.6500015
 101.3000031  90.6689987  80.2490005 102.8789978  89.9459991  80.6999969
 101.2440033  89.5110016  82.0619965 101.6220016  88.5510025  82.4729996
 100.1330032  89.4729996  82.0559998 101.5490036  90.3339996  82.7429962
 102.0370026  86.2880020  78.8730011 102.7009964  86.3270035  77.8359985
 101.1630020  85.2839966  79.0859985 100.6689987  85.2139969  79.9489975
 100.7939987  84.3229980  78.0579987 101.7200012  83.8820038  77.7210007
  99.9349976  83.2040024  78.6780014  98.9609985  83.6009979  79.0339966
 100.4639969  82.7500000  79.5429993  99.7369995  82.4000015  77.9369965
 100.1070023  84.9609985  76.8249969  99.5429993  86.0500031  76.9570007
 100.1579971  84.3909988  75.6100006 100.9550018  83.1999969  75.2969971
 100.5130005  82.3180008  75.8079987 102.0159988  83.3320007  75.5960007
  99.3700027  84.8229980  74.4479980  99.8840027  85.6890030  74.0579987
  99.4449997  83.6230011  73.4940033  99.3180008  83.9199982  72.4309998
  98.6750031  82.8669968  73.7600021 100.8290024  83.0370026  73.7789993
 100.9229965  81.9789963  73.4540024 101.6060028  83.6490021  73.2730026
  97.9349976  85.2880020  74.6989975  97.2529984  84.7559967  75.5729980
  97.4369965  86.2969971  73.9550018  97.9779968  86.7160034  73.2300034
  96.1090012  86.8450012  74.1900024  96.0950012  87.2200012  75.2030029
  95.8209991  88.0260010  73.2340012  95.8619995  87.6449966  72.1920013
  96.6429977  88.7649994  73.3509979  94.4649963  88.7379990  73.4700012
  94.4700012  89.1849976  74.4869995  93.6220016  88.0159988  73.4219971
  94.1669998  89.8450012  72.4550018  93.1370010  90.5449982  72.6620026
  94.9169998  90.0350037  71.4629974  94.9869995  85.8140030  74.0739975
  94.8529968  85.1210022  73.0640030  94.1679993  85.6800003  75.1389999
  94.3359985  86.2129974  75.9649963  93.0770035  84.7210007  75.2259979
  92.6780014  84.5279999  74.2409973  92.3410034  85.1350021  75.8980026
  93.4990005  83.3970032  75.8160019  92.6900024  82.4779968  75.9309998
  94.7730026  83.2470016  76.2200012  95.4400024  83.9759979  76.0839996
  95.2740021  82.0260010  76.8160019  94.9560013  81.2009964  76.1959991
  96.8180008  82.0130005  76.8799973  97.1600037  82.7229996  77.6630020
  97.2089996  82.3899994  75.9100037  97.4339981  80.6200027  77.1149979
  96.9619980  80.1200027  77.9879990  98.5210037  80.7210007  77.3209991
  97.2939987  79.7440033  75.8759995  96.7880020  78.5999985  75.9950027
  97.7360001  80.1549988  74.7679977  94.7070007  81.8030014  78.2149963
  94.8069992  82.6470032  79.1090012  94.0820007  80.6419983  78.4199982
  94.0139999  79.9720001  77.6839981  93.4150009  80.2429962  79.6279984
  93.4909973  81.0179977  80.3769989  91.9229965  79.9599991  79.3109970
  91.8430023  79.2340012  78.4729996  91.4349976  80.9020004  78.9820023
  91.1579971  79.4130020  80.4810028  90.8430023  78.0439987  80.5680008
  91.1890030  77.3679962  79.8000031  90.0790024  77.5579987  81.6350021
  89.8410034  76.5059967  81.6959991  89.6190033  78.4400024  82.6210022
  89.0270004  78.0699997  83.4449997  90.6910019  80.2860031  81.4710007
  90.9089966  81.3410034  81.3939972  89.9290009  79.8040009  82.5370026
  89.5759964  80.4909973  83.2919998  94.1159973  79.0049973  80.1650009
  94.3769989  78.0500031  79.4319992  94.4629974  78.9909973  81.4619980
  94.2829971  79.7740021  82.0520020  95.2419968  77.9120026  82.0319977
  95.0380020  77.0199966  81.4570007  96.7799988  78.1539993  81.9960022
  97.0930023  78.1399994  80.9300003  97.3290024  77.3399963  82.5149994
  97.1500015  79.4169998  82.5520020  96.9560013  79.3809967  83.4919968
  94.8199997  77.5640030  83.4430008  94.5230026  78.4219971  84.2740021
  94.7689972  76.2539978  83.7360001  95.0930023  75.5910034  83.0670013
  94.2949982  75.7229996  85.0019989  94.1119995  76.5329971  85.6930008
  92.9899979  74.9400024  84.8659973  93.0960007  74.1809998  84.0609970
  92.6210022  74.2269974  86.1819992  92.5899963  74.9550018  87.0210037
  93.3460007  73.4229965  86.4280014  91.6169968  73.7590027  86.0899963
  91.8700027  75.9219971  84.4690018  92.0830002  76.4049988  83.4919968
  91.7669983  76.7170029  85.2389984  90.9000015  75.3880005  84.3860016
  95.4000015  74.8789978  85.6100006  96.0059967  74.0329971  84.9530029
  95.7279968  75.1340027  86.8870010  95.1989975  75.8099976  87.3939972
  96.9010010  74.5999985  87.5439987  97.4459991  73.9619980  86.8639984
  97.8349991  75.7310028  88.0419998  98.8089981  75.3190002  88.3850021
  97.3560028  76.2570038  88.8949966  98.1070023  76.7210007  86.9160004
  98.5279999  76.3209991  85.8280029  97.8690033  78.0270004  87.1650009
  98.1220016  78.7040024  86.4729996  97.4909973  78.2959976  88.0510025
  96.5350037  73.7720032  88.7649994  95.6839981  74.1569977  89.5709991
  97.2239990  72.6309967  88.9449997  97.8339996  72.2969971  88.2310028
  97.2500000  71.8960037  90.1920013  96.6949997  72.4390030  90.9440002
  96.6439972  70.4690018  90.0439987  97.1949997  69.9059982  89.2600021
  95.5830002  70.5530014  89.7239990  96.6750031  69.6849976  91.3389969
  97.3539963  68.4560013  91.4359970  97.8619995  68.0559998  90.5709991
  97.3850021  67.7500000  92.6490021  97.9120026  66.8099976  92.7119980
  96.7379990  68.2689972  93.7789993  96.7610016  67.5879974  95.0149994
  97.5149994  66.9940033  95.0210037  96.0230026  70.1890030  92.4769974
  95.4990005  71.1320038  92.4219971  96.0589981  69.4889984  93.6900024
  95.5680008  69.8949966  94.5609970  98.6949997  71.8339996  90.6729965
  99.6210022  71.6549988  89.8769989  98.9179993  72.0070038  91.9879990
  98.1630020  72.2529984  92.5910034 100.2060013  71.8290024  92.6240005
 100.7969971  71.1439972  92.0339966 100.9749985  73.1549988  92.8190002
 101.8909988  72.9639969  93.4189987 100.3290024  73.8470001  93.4000015
 101.4120026  73.8619995  91.5260010 101.8570023  74.8339996  91.8290024
 100.5210037  74.0910034  90.9039993 102.4550018  73.0839996  90.7170029
 102.0739975  72.1100006  90.3420029 103.3479996  72.8809967  91.3470001
 102.8840027  73.9499969  89.5790024 103.6969986  74.5139999  89.7210007
 102.2259979  74.1039963  88.4410019 101.1129990  73.4660034  88.1500015
 100.7279968  72.8109970  88.8000031 100.7799988  73.5299988  87.2089996
 102.6940002  74.9260025  87.5230026 103.5289993  75.4449997  87.7030029
 102.1829987  75.0019989  86.6669998 100.0419998  71.1940002  93.9970016
  99.1460037  71.5490036  94.7639999 100.9250031  70.2330017  94.3199997
 101.6299973  69.9720001  93.6650009 100.8160019  69.3730011  95.4739990
 100.0839996  69.7770004  96.1569977 100.3489990  67.9879990  94.9509964
 101.1770020  67.4560013  94.4349976  99.5559998  68.1809998  94.1969986
  99.7470016  67.0790024  96.0110016 100.0279999  67.2379990  97.2259979
  99.0179977  66.1289978  95.6039963 102.1539993  69.2969971  96.2190018
 103.1999969  68.9800034  95.6429977 102.1419983  69.5989990  97.5309982
 101.2939987  69.8779984  97.9749985 103.2639999  69.4209976  98.4280014
 103.7990036  68.5350037  98.1200027 104.2559967  70.6269989  98.4290009
 104.6129990  70.7979965  97.3909988 105.1449966  70.3730011  99.0449982
 103.6579971  71.9110031  99.0029984 103.5270004  72.0609970 100.2200012
 103.3349991  72.8919983  98.1330032 102.9789963  73.7500000  98.5019989
 103.4919968  72.7630005  97.1529999 102.6809998  69.1100006  99.8079987
 101.4649963  69.0579987  99.9899979 103.5299988  68.8499985 100.8190002
 104.5189972  68.9479980 100.7330017 103.1389999  68.4160004 102.1439972
 102.3679962  67.6669998 102.0380020 104.3580017  67.7509995 102.8470001
 104.6699982  66.8679962 102.2490005 104.0660019  67.3880005 103.8560028
 105.5670013  68.6760025 102.9660034 106.0419998  69.2060013 101.9260025
 106.0859985  68.8359985 104.1029968 102.5490036  69.5220032 103.0339966
 101.8720016  69.2350006 104.0230026 102.7630005  70.8069992 102.6959991
 103.2900009  71.0299988 101.8799973 102.2740021  71.9319992 103.4710007
 101.9830017  71.6139984 104.4609985 103.3840027  73.0100021 103.5849991
 102.9869995  73.8669968 104.1699982 103.6460037  73.3899994 102.5749969
 104.6800003  72.5139999 104.2720032 105.3710022  73.3720016 104.4179993
 105.1940002  71.7730026 103.6220016 104.3939972  71.8919983 105.6419983
 103.8730011  72.5449982 106.5520020 104.7490005  70.5989990 105.8270035
 105.2060013  70.0889969 105.0979996 104.5709991  70.1750031 106.7149963
 101.0429993  72.5609970 102.8270035 100.1149979  72.9960022 103.5110016
 100.9869995  72.5790024 101.4830017 101.7509995  72.2220001 100.9499969
  99.9309998  73.2300034 100.7369995  99.0559998  73.3320007 101.3629990
 100.3600006  74.6250000 100.1979980  99.5670013  75.0650024  99.5559998
 101.2789993  74.5299988  99.5800018 100.6259995  75.6129990 101.3010025
  99.5459976  76.2760010 101.9069977  98.5370026  76.0100021 101.6279984
  99.7689972  77.2959976 102.8389969  98.9390030  77.8209991 103.2870026
 101.0729980  77.6520004 103.1940002 101.2630005  78.6819992 104.1259995
 102.1949997  78.6699982 104.3560028 101.9369965  75.9789963 101.6630020
 102.7779999  75.4909973 101.1920013 102.1600037  76.9860001 102.6149979
 103.1689987  77.2630005 102.8830032  99.5159988  72.4150009  99.5220032
 100.3040009  71.6809998  98.9229965  98.2490005  72.5780029  99.0999985
  97.6019974  73.0950012  99.6539993  97.8209991  72.2379990  97.7590027
  98.6600037  71.8899994  97.1760025  96.6760025  71.1920013  97.6800003
  96.5849991  70.8600006  96.6240005  95.7040024  71.6549988  97.9540024
  96.8629990  69.9570007  98.5790024  96.9199982  70.2779999  99.6409988
  97.8219986  69.4639969  98.3099976  95.7089996  68.9580002  98.4390030
  95.6190033  68.6259995  97.3830032  94.7409973  69.4140015  98.7360001
  96.0410004  67.7639999  99.2829971  96.6770020  67.0859985  98.9150009
  95.4570007  67.4499969 100.4319992  94.6129990  68.2310028 101.0670013
  94.1989975  67.9260025 101.9250031  94.3789978  69.1350021 100.7089996
  95.7289963  66.2779999 100.9800034  96.3270035  65.6350021 100.5019989
  95.2440033  65.9929962 101.8059998  97.3199997  73.5390015  97.1510010
  96.5619965  74.2870026  97.7750015  97.7409973  73.8450012  95.9120026
  98.3239975  73.2099991  95.4120026  97.3199997  75.0479965  95.2200012
  96.6930008  75.6490021  95.8610001  98.4889984  75.9430008  94.7180023
  98.0910034  76.8860016  94.2860031  99.0660019  75.4300003  93.9179993
  99.4369965  76.3180008  95.8290024  99.0419998  77.2480011  96.8040009
  98.0390015  77.6490021  96.7870026  99.9390030  77.6770020  97.7910004
  99.6259995  78.4029999  98.5260010 101.2440033  77.1719971  97.8180008
 101.9339981  77.5070038  98.5780029 100.7570038  75.8290024  95.8590012
 101.0899963  75.1389999  95.0979996 101.6549988  76.2470016  96.8509979
 102.6679993  75.8740005  96.8610001  96.4840012  74.6449966  94.0199966
  96.8740005  73.8010025  93.2099991  95.2979965  75.2600021  93.8880005
  94.9779968  75.8970032  94.5859985  94.4089966  75.0859985  92.7610016
  94.8570023  74.4509964  92.0110016  93.0039978  74.5449982  93.1640015
  92.3970032  74.3399963  92.2570038  92.4599991  75.2969971  93.7750015
  93.0800018  73.2880020  93.9960022  92.8909988  72.0289993  93.4010010
  92.7429962  71.9599991  92.3330002  92.8769989  70.8639984  94.1809998
  92.7350006  69.9049988  93.7040024  93.0609970  70.9459991  95.5670013
  93.0589981  69.7789993  96.3669968  92.8310013  69.0279999  95.8140030
  93.2379990  73.3580017  95.3939972  93.3580017  74.3199997  95.8700027
  93.2440033  72.1940002  96.1719971  93.3779984  72.2570038  97.2419968
  94.2300034  76.4769974  92.1829987  93.8320007  77.4039993  92.8870010
  94.5289993  76.6959991  90.8929977  94.8550034  75.9680023  90.2949982
  94.4120026  78.0410004  90.3460007  93.6029968  78.5400009  90.8580017
  95.6660004  78.9449997  90.5270004  95.7959976  79.1470032  91.6119995
  95.5220032  79.9270020  90.0270004  96.8590012  78.3369980  90.0270004
  97.1620026  77.7060013  90.6839981  93.9810028  78.0530014  88.9010010
  94.2519989  77.1429977  88.1190033  93.2360001  79.1090012  88.5429993
  93.0780029  79.8280029  89.2170029  92.6839981  79.3479996  87.2239990
  93.0530014  78.6129990  86.5230026  91.1600037  79.3460007  87.1959991
  90.7559967  80.0770035  87.9290009  90.6559982  78.0500031  87.5139999
  90.8980026  77.8580017  88.4229965  90.6399994  79.6890030  85.7959976
  91.0989990  79.0100021  85.0449982  90.8730011  80.7389984  85.5159988
  89.5370026  79.5650024  85.7519989  93.1729965  80.7040024  86.7740021
  92.8499985  81.7360001  87.3659973  93.9889984  80.7330017  85.7160034
  94.2020035  79.8919983  85.2239990  94.6859970  81.9189987  85.2580032
  94.3970032  82.7699966  85.8570023  96.2269974  81.7809982  85.3170013
  96.7149963  82.7180023  84.9720001  96.5559998  80.9550018  84.6510010
  96.6610031  81.4889984  86.6439972  96.7460022  82.3389969  87.0820007
  94.3030014  82.2170029  83.8290024  94.1190033  81.3190002  83.0059967
  94.1330032  83.5039978  83.4950027  94.2460022  84.2249985  84.1750031
  93.7139969  83.9079971  82.1699982  93.9749985  83.1299973  81.4680023
  92.2009964  84.0989990  82.0739975  91.7330017  83.1370010  82.3740005
  91.6920013  85.1790009  83.0500031  92.0790024  86.1829987  82.7740021
  91.9980011  84.9560013  84.0950012  90.5830002  85.2220001  83.0210037
  91.7919998  84.3899994  80.6159973  92.1709976  83.5960007  79.9380035
  92.1930008  85.3690033  80.2770004  90.6839981  84.4260025  80.5299988
  94.4759979  85.1370010  81.7089996  94.5550003  86.1660004  82.3860016
  95.0879974  85.0469971  80.5139999  95.0459976  84.1940002  79.9980011
  95.7220001  86.1579971  79.8539963  96.0830002  86.8550034  80.5960007
  96.9290009  85.6880035  79.0299988  96.6220016  84.9430008  78.2659988
  97.6790009  85.2180023  79.7030029  97.4130020  86.5449982  78.5159988
  94.7119980  86.8899994  78.9779968  94.5299988  86.6100006  77.7910004
  94.0019989  87.8590012  79.5820007  94.1849976  88.0500031  80.5439987
  92.9619980  88.6579971  78.9670029  92.2320023  87.9729996  78.5630035
  92.2860031  89.5650024  80.0289993  91.5100021  90.1989975  79.5479965
  93.0540009  90.2379990  80.4649963  91.6129990  88.8050003  81.1949997
  92.3570023  88.1200027  81.6549988  91.1630020  89.7809982  82.2910004
  90.4309998  90.5110016  81.8830032  92.0339966  90.3399963  82.6959991
  90.6819992  89.2289963  83.1259995  90.4160004  87.9660034  80.7239990
  90.7350006  87.1809998  80.0059967  89.6559982  88.6129990  80.2350006
  89.9390030  87.4639969  81.5930023  93.4390030  89.5029984  77.7929993
  92.7529984  89.6610031  76.7829971  94.6439972  90.0719986  77.9020004
  95.2229996  89.8460007  78.6819992  95.2330017  90.9589996  76.9240036
  94.7509995  90.8180008  75.9680023  95.1589966  92.4469986  77.3690033
  95.7020035  93.1139984  76.6660004  95.6250000  92.5719986  78.3700027
  93.7379990  92.9430008  77.4599991  93.1719971  93.7030029  76.4179993
  93.7529984  93.9020004  75.5299988  91.8909988  94.2590027  76.5530014
  91.4759979  94.8669968  75.7630005  91.1630020  94.0550003  77.7320023
  90.1829987  94.4929962  77.8489990  92.9980011  92.7659988  78.6389999
  93.4430008  92.2229996  79.4609985  91.7139969  93.3020020  78.7740021
  91.1600037  93.1549988  79.6900024  96.6890030  90.5400009  76.7890015
  97.1620026  89.8099976  77.6630020  97.4680023  90.9599991  75.7809982
  96.9800034  91.6500015  74.5810013  96.8570023  92.7310028  74.8059998
  96.0210037  91.2259979  74.2119980  98.9039993  90.6699982  75.6949997
  99.0220032  89.5970001  75.6729965  99.3560028  91.3799973  74.4029999
 100.1740036  90.8249969  73.8949966  99.7030029  92.4150009  74.6090012
  98.0899963  91.4609985  73.5459976  98.1269989  92.2910004  72.8089981
  97.9440002  90.5029984  73.0029984  99.6869965  91.1910019  76.8889999
 100.8140030  90.7639999  77.1289978  99.1039963  92.1689987  77.5989990
  98.2239990  92.5210037  77.2900009  99.6900024  92.8690033  78.7050018
 100.7210007  92.5609970  78.8000031  99.6380005  94.3899994  78.3889999
 100.4589996  94.5790024  77.6650009  99.8649979  95.0000000  79.2880020
  98.3690033  94.8909988  77.7600021  98.1819992  95.1399994  76.4209976
  98.9329987  94.9820023  75.6610031  96.9199982  95.6470032  76.2149963
  96.5709991  96.0390015  75.3929977  96.2590027  95.7190018  77.4089966
  97.1309967  95.2279968  78.4120026  96.6869965  95.1640015  79.7320023
  97.3369980  94.8199997  80.5230026  95.3759995  95.5530014  80.0179977
  95.0130005  95.4879990  81.0329971  94.9759979  96.1549988  77.7020035
  94.3130035  96.5230026  76.9319992  94.5370026  96.0479965  79.0230026
  93.5289993  96.3430023  79.2750015  99.0459976  92.5830002  80.0619965
  99.4800034  93.1320038  81.0739975  98.0299988  91.7009964  80.1470032
  97.7300034  91.1890030  79.3460007  97.3550034  91.4179993  81.4069977
  97.9980011  91.6920013  82.2300034  96.0319977  92.2220001  81.5699997
  95.4919968  92.1839981  80.5999985  96.3030014  93.2829971  81.7600021
  95.0329971  91.7789993  82.6719971  94.7119980  90.7360001  82.4639969
  95.6110001  91.8290024  84.0960007  95.7699966  92.8830032  84.4089966
  96.5830002  91.2949982  84.1689987  94.9020004  91.3629990  84.8130035
  93.7740021  92.6589966  82.6230011  93.2720032  92.5800018  81.6350021
  94.0429993  93.7229996  82.7969971  93.0530014  92.3479996  83.4089966
  97.0910034  89.9380035  81.5810013  96.4489975  89.2939987  80.7500000
  97.5579987  89.3840027  82.7139969  98.0960007  89.9400024  83.3420029
  97.2020035  88.0680008  83.1880035  96.4240036  87.6630020  82.5569992
  98.3909988  87.0729980  83.1360016  99.2910004  87.5759964  83.5479965
  98.5889969  86.8519974  82.0650024  98.1790009  85.7429962  83.8970032
  97.2080002  85.2919998  83.5989990  98.1630020  85.9240036  84.9929962
  99.2959976  84.7409973  83.6090012  98.9879990  83.5709991  83.2559967
 100.4950027  85.1050034  83.7699966  96.5960007  88.1669998  84.5810013
  97.1699982  88.7659988  85.4950027  95.3820038  87.6029968  84.7600021
  94.9680023  87.1149979  83.9960022  94.6760025  87.5520020  86.0360031
  93.6620026  87.8779984  85.8580017  95.1829987  88.1449966  86.7829971
  94.6100006  86.1340027  86.5289993  94.4290009  85.2050018  85.7450027
  94.7470016  85.9229965  87.8499985  94.8799973  86.6940002  88.4680023
  94.7850037  84.5839996  88.4329987  94.4380035  83.8590012  87.7109985
  96.1760025  84.1569977  88.8690033  96.6309967  84.9359970  89.5169983
  96.9889984  83.9789963  87.7149963  97.1250000  84.8450012  87.3229980
  96.1829987  82.8180008  89.6259995  95.6569977  82.0360031  89.0380020
  95.6999969  82.9059982  90.6230011  97.2300034  82.4889984  89.7979965
  93.8690033  84.4550018  89.6200027  94.0260010  85.1429977  90.6259995
  92.9079971  83.5220032  89.5289993  92.8320007  82.9820023  88.6940002
  92.0329971  83.0839996  90.5979996  91.9250031  83.8679962  91.3330002
  90.6529999  82.7050018  90.0469971  90.8059998  82.0479965  89.1640015
  89.8290024  81.9059982  91.0830002  89.8059998  82.4440002  92.0540009
  90.2519989  80.8919983  91.2509995  88.7809982  81.7720032  90.7369995
  89.9089966  83.9690018  89.5469971  90.5999985  84.5889969  88.9369965
  89.6050034  84.5800018  90.4240036  88.6829987  83.6569977  88.6809998
  87.8949966  83.1449966  89.2730026  88.9649963  83.0049973  87.8259964
  88.2549973  84.5979996  88.2740021  92.6719971  81.8809967  91.2789993
  93.1179962  80.9479980  90.6110001  92.7480011  81.8560028  92.6220016
  92.4489975  82.6399994  93.1610031  93.3830032  80.7750015  93.3479996
  93.4189987  79.9000015  92.7160034  94.8489990  81.1309967  93.7239990
  94.8209991  82.1259995  94.2190018  95.4300003  81.2470016  92.7850037
  95.5680008  80.1289978  94.6610031  95.5009995  79.1139984  94.2139969
  95.0429993  80.0960007  95.6399994  97.0530014  80.4189987  94.9430008
  97.6539993  80.3590012  94.0110016  97.4639969  79.6750031  95.6589966
  97.1360016  81.7760010  95.5709991  96.8570023  81.8929977  96.5240021
  97.4120026  82.8919983  94.9100037  97.8809967  82.9339981  93.6930008
  98.1569977  82.1029968  93.2109985  98.1220016  83.8399963  93.3450012
  97.1480026  84.0569992  95.4530029  96.3710022  84.0559998  96.0810013
  97.1999969  84.8190002  94.8069992  92.6139984  80.3320007  94.5879974
  92.1019974  81.1350021  95.3710022  92.5660019  79.0000000  94.7890015
  92.9520035  78.3949966  94.0979996  92.2300034  78.3489990  96.0370026
  91.8750000  79.0810013  96.7470016  91.1790009  77.2190018  95.8740005
  91.2559967  76.4540024  96.6760025  91.3190002  76.7030029  94.8990021
  89.7900009  77.7760010  95.9260025  89.0999985  77.7990036  97.1500015
  89.5920029  77.4560013  98.0479965  87.7740021  78.2429962  97.2099991
  87.2610016  78.2590027  98.1600037  87.1360016  78.6969986  96.0520020
  85.8150024  79.1880035  96.1149979  85.4189987  78.9309998  96.9509964
  89.1340027  78.2080002  94.7630005  89.6500015  78.1809998  93.8150024
  87.8130035  78.6719971  94.8270035  87.3180008  79.0049973  93.9260025
  93.4889984  77.7369995  96.6259995  94.2089996  76.9800034  95.9710007
  93.7829971  78.0510025  97.8990021  93.1989975  78.6819992  98.4020004
  94.9300003  77.4779968  98.5950012  95.4950027  76.8339996  97.9380035
  95.8970032  78.4940033  99.1750031  95.3960037  79.1539993  99.9150009
  96.4280014  79.3050003  98.1340027  95.7099991  79.8519974  97.8079987
  97.0749969  77.7750015  99.8489990  97.5070038  77.0149994  99.1630020
  96.7620010  77.2730026 100.7890015  97.8750000  78.5019989 100.1039963
  94.4390030  76.6389999  99.7389984  93.8300018  77.1490021 100.6780014
  94.7060013  75.3239975  99.6930008  95.2369995  74.9479980  98.9369965
  94.3619995  74.3860016 100.7320023  93.5579987  74.7839966 101.3330002
  93.9100037  73.0609970 100.0650024  94.7450027  72.6900024  99.4329987
  93.0350037  73.2570038  99.4089966  93.5329971  71.9700012 101.0469971
  93.0459976  72.3000031 102.1600037  93.5970001  70.7720032 100.6660004
  95.5699997  74.1930008 101.6510010  96.6429977  73.7649994 101.2190018
  95.4260025  74.5380020 102.9430008  94.5490036  74.8809967 103.2689972
  96.5289993  74.5309982 103.8899994  97.4660034  74.5729980 103.3560028
  96.4860001  75.7190018 104.8440018  95.6449966  75.6100006 105.5609970
  97.8109970  75.7750015 105.6309967  98.6760025  75.8519974 104.9380035
  97.9499969  74.8730011 106.2630005  97.8239975  76.6589966 106.3040009
  96.2399979  77.0049973 104.0279999  95.2080002  77.0299988 103.6169968
  96.9489975  77.0680008 103.1750031  96.3700027  77.9059982 104.6660004
  96.5019989  73.2419968 104.6930008  95.6259995  73.0110016 105.5240021
  97.4759979  72.3420029 104.4670029  98.2600021  72.5670013 103.8939972
  97.3889999  70.9700012 104.9290009  96.3870010  70.6179962 104.7289963
  98.3619995  70.0719986 104.1240005  98.3460007  69.0459976 104.5490036
  99.3970032  70.4599991 104.2379990  98.0029984  69.9940033 102.6210022
  98.0559998  71.0169983 102.1900024  96.9550018  69.6470032 102.5000000
  98.9380035  69.1039963 101.7910004  99.9940033  69.3960037 101.9769974
  98.7089996  69.1999969 100.7089996  98.7259979  67.6869965 102.2259979
  98.0979996  67.4879990 102.9779968  99.2580032  66.6350021 101.6159973
 100.0670013  66.7490005 100.5899963 100.3410034  67.6600037 100.2829971
 100.3659973  65.9349976 100.0920029  98.9639969  65.4219971 102.0429993
  98.4169998  65.3059998 102.8720016  99.4189987  64.6320038 101.6309967
  97.6090012  70.7770004 106.4280014  97.1630020  69.7880020 107.0120010
  98.2750015  71.7360001 107.0979996  98.6669998  72.5189972 106.6210022
  98.5830002  71.6559982 108.5220032  98.5370026  70.6289978 108.8539963
  99.9860001  72.1829987 108.8330002 100.1780014  72.1890030 109.9280014
 100.1829987  73.4909973 108.3020020 101.0149994  73.8010025 108.6679993
 101.0220032  71.2590027 108.1719971 100.9250031  71.2750015 107.0650024
 100.8909988  70.2139969 108.5240021 102.0510025  71.5879974 108.4309998
  97.6070023  72.4430008 109.3840027  97.6849976  72.3990021 110.6129990
  96.6439972  73.1679993 108.7770004  96.5380020  73.1309967 107.7860031
  95.7799988  74.0940018 109.4909973  95.9599991  74.0250015 110.5530014
  96.0319977  75.5609970 109.0410004  95.3280029  76.2369995 109.5719986
  95.8180008  75.6470032 107.9540024  97.4680023  76.0820007 109.2900009
  97.5070038  77.1389999 108.9489975  98.1839981  75.5059967 108.6660004
  97.9189987  76.0049973 110.7529984  98.0380020  74.9420013 111.0559998
  97.1829987  76.5059967 111.4179993  99.2269974  76.7220001 110.8499985
  99.4509964  77.4300003 110.1790009 100.0719986  76.6200027 111.8659973
  99.9430008  75.7310028 112.8270035  99.2109985  75.0530014 112.7710037
 100.6389999  75.6689987 113.5419998 101.0839996  77.4639969 111.9240036
 101.1539993  78.1699982 111.2200012 101.6969986  77.4459991 112.7129974
  94.3069992  73.7750015 109.2900009  93.8079987  73.7210007 108.1679993
  93.5510025  73.5739975 110.3909988  93.9670029  73.5490036 111.2959976
  92.0970001  73.5260010 110.3690033  91.8140030  72.8059998 109.6159973
  91.5080032  73.0350037 111.7149963  90.3980026  73.0650024 111.6709976
  91.8270035  73.7229996 112.5260010  91.9130020  71.5960007 112.0790024
  93.0210037  71.5220032 112.1299973  91.5680008  70.9039993 111.2809982
  91.3229980  71.1600037 113.4359970  90.2149963  71.1959991 113.3659973
  91.6350021  71.9049988 114.1989975  91.7789993  69.7590027 113.8789978
  92.8870010  69.7259979 113.9550018  91.4499969  68.9960022 113.1409988
  91.2109985  69.4039993 115.2080002  90.1719971  69.4140015 115.1890030
  91.5319977  70.0770035 115.9329987  91.5220032  68.4540024 115.4929962
  91.4479980  74.8570023 109.9720001  91.9649963  75.9380035 110.2559967
  90.2890015  74.7979965 109.2850037  89.9319992  73.9059982 109.0169983
  89.5220032  75.9369965 108.8069992  90.1740036  76.5189972 108.1709976
  88.3290024  75.3990021 107.9619980  87.6190033  74.8460007 108.6139984
  88.7149963  74.6800003 107.2080002  87.5709991  76.4820023 107.2340012
  86.5589981  77.2170029 107.8759995  86.3300018  77.0189972 108.9120026
  85.8580017  78.2180023 107.1890030  85.0970001  78.7860031 107.7040024
  86.1439972  78.4729996 105.8410034  85.4479980  79.4840012 105.1350021
  84.8389969  79.9179993 105.7360001  87.8330002  76.7320023 105.8750000
  88.5830002  76.1500015 105.3590012  87.1250000  77.7229996 105.1819992
  87.3339996  77.9120026 104.1399994  89.0670013  76.8750000 109.9319992
  89.1559982  78.0999985 109.8249969  88.6110001  76.3059998 111.0630035
  88.5240021  75.3150024 111.1320038  88.2819977  77.0540009 112.2649994
  88.9189987  77.9240036 112.3150024  86.7850037  77.5090027 112.3460007
  86.4889984  77.9240036 111.3590012  86.6969986  78.3330002 113.0869980
  85.8740005  76.4710007 112.7229996  85.9010010  75.8190002 112.0189972
  88.6320038  76.1780014 113.4550018  89.0510025  75.0279999 113.3089981
  88.4800034  76.7139969 114.6829987  88.1740036  77.6549988 114.7990036
  88.7429962  75.9700012 115.9039993  89.4400024  75.1689987 115.7089996
  89.3470001  76.9179993 116.9749985  89.5449982  76.3300018 117.8970032
  88.6100006  77.7070007 117.2369995  90.6780014  77.5989990 116.5619965
  91.1279984  78.0960007 117.4469986  90.4739990  78.3850021 115.8040009
  91.6999969  76.5960007 116.0139999  92.1650009  75.6989975 116.7239990
  92.0780029  76.7419968 114.7229996  92.7500000  76.1019974 114.3499985
  91.6969986  77.4810028 114.1679993  87.4700012  75.3249969 116.4489975
  87.4639969  74.7460022 117.5380020  86.3560028  75.3870010 115.6910019
  86.3820038  75.8150024 114.7910004  85.0579987  74.9150009 116.1299973
  85.0879974  74.6719971 117.1819992  83.9889984  76.0230026 115.9309998
  82.9800034  75.6419983 116.1979980  83.9759979  76.3020020 114.8560028
  84.2519989  77.2580032 116.7340012  84.6910019  78.4690018 116.2600021
  84.8779984  78.6780014 115.2170029  84.8489990  79.3440018 117.3130035
  85.1439972  80.2730026 117.2699966  84.5149994  78.7180023 118.4789963
  84.1309967  77.3929977 118.1600037  83.7360001  76.5270004 119.1819992
  83.4329987  75.5130005 118.9670029  83.7310028  77.0000000 120.4970016
  83.4260025  76.3430023 121.2979965  84.5110016  79.1849976 119.7839966
  84.8040009  80.1969986 120.0199966  84.1119995  78.3059998 120.7939987
  84.0979996  78.6419983 121.8199997  84.6370010  73.6490021 115.3919983
  84.2659988  73.6640015 114.2180023  84.6480026  72.4990005 116.1019974
  84.9779968  72.5009995 117.0429993  84.2770004  71.1940002 115.5719986
  84.9169998  71.0159988 114.7210007  84.5690002  70.0810013 116.6110001
  84.0429993  70.3280029 117.5579987  85.6600037  70.1029968 116.8190002
  84.1569977  68.6510010 116.1709976  84.6019974  68.4359970 115.1760025
  83.0520020  68.5810013 116.0820007  84.6100006  67.5449982 117.1269989
  84.3339996  66.3529968 116.8160019  85.2360001  67.8280029 118.1829987
  82.8420029  71.1060028 115.0520020  82.5589981  70.5000000 114.0159988
  81.9010010  71.7730026 115.7500000  82.1490021  72.2170029 116.6070023
  80.4980011  71.8359985 115.3769989  80.1719971  70.8440018 115.1009979
  79.6500015  72.3529968 116.5709991  78.5910034  72.4860001 116.2620010
  80.0400009  73.3369980 116.9079971  79.6500015  71.3919983 117.7519989
  79.8850021  70.1669998 117.5800018  79.2959976  71.8489990 118.8740005
  80.2379990  72.7289963 114.1559982  79.1650009  72.6729965 113.5530014
  81.2200012  73.5640030 113.7519989  82.0950012  73.5699997 114.2300034
  81.1080017  74.4400024 112.6019974  80.0650024  74.5569992 112.3450012
  81.6920013  75.8440018 112.9280014  82.7720032  75.7649994 113.1760025
  81.1669998  76.2580032 113.8150024  81.5159988  76.8339996 111.8010025
  82.6230011  77.4950027 111.2409973  83.6169968  77.2720032 111.5989990
  82.4489975  78.4459991 110.2279968  83.3069992  78.9459991 109.8030014
  81.1620026  78.7480011 109.7669983  81.0260010  79.4779968 108.9830017
  80.2289963  77.1490021 111.3320007  79.3659973  76.6610031 111.7610016
  80.0500031  78.0970001 110.3170013  79.0559998  78.3270035 109.9629974
  81.7819977  73.7860031 111.3960037  81.1240005  73.1620026 110.5660019
  83.1220016  73.8919983 111.2669983  83.6740036  74.3619995 111.9509964
  83.8339996  73.4100037 110.0920029  83.1660004  73.3659973 109.2440033
  85.0100021  74.3570023 109.7249985  84.5790024  75.3519974 109.4810028
  85.5410004  73.9970016 108.8180008  85.9380035  74.5270004 110.8040009
  86.3619995  73.6819992 110.9729996  84.4219971  72.0230026 110.2730026
  84.9540024  71.4300003 109.3339996  84.3359985  71.4400024 111.4879990
  83.8529968  71.9130020 112.2210007  85.0770035  70.2279968 111.8379974
  84.7419968  69.4380035 111.1809998  84.8870010  70.0049973 112.8769989
  86.5780029  70.3539963 111.6770020  87.1729965  71.4069977 111.9049988
  87.2300034  69.2570038 111.2689972  86.7720032  68.3860016 111.1070023
  88.6500015  69.1660004 111.0230026  89.1490021  69.9670029 111.5479965
  89.2009964  67.8219986 111.5889969  89.0719986  67.8320007 112.6930008
  90.2900009  67.7509995 111.3769989  88.5230026  66.5530014 111.0719986
  87.3470001  66.5869980 110.6210022  89.1429977  65.4670029 111.2450027
  88.9889984  69.3720016 109.5380020  90.0719986  69.0100021 109.0729980
  88.0820007  70.0159988 108.7639999  87.2030029  70.2750015 109.1559982
  88.3389969  70.4909973 107.4110031  88.5719986  69.6320038 106.7990036
  87.0790024  71.2129974 106.8499985  86.8059998  72.0270004 107.5559998
  86.2369995  70.4889984 106.8649979  87.1819992  71.8460007 105.4359970
  87.9110031  72.6839981 105.4479980  86.1949997  72.2699966 105.1490021
  87.6179962  70.8639984 104.3470001  88.6070023  71.0749969 103.6370010
  86.8460007  69.7679977 104.1910019  86.0619965  69.6190033 104.7939987
  87.1190033  69.0670013 103.5329971  89.5260010  71.4509964 107.3519974
  89.6539993  72.3580017 108.1729965  90.4509964  71.2649994 106.3919983
  90.3769989  70.5250015 105.7279968  91.5910034  72.1470032 106.1979980
  92.0500031  72.2610016 107.1689987  92.6900024  71.5289993 105.2929993
  93.2389984  70.7639999 105.8830032  93.4250031  72.3000031 104.9749985
  92.1419983  70.8949966 104.1399994  92.6100006  71.2860031 103.3990021
  91.2539978  73.5650024 105.7470016  90.3000031  73.8099976 105.0039978
  92.0410004  74.5569992 106.2040024  92.7929993  74.3330002 106.8199997
  91.8820038  75.9660034 105.8880005  90.8789978  76.2340012 106.1869965
  92.8870010  76.8140030 106.7239990  93.9280014  76.5770035 106.4160004
  92.7910004  76.5360031 107.7959976  92.6930008  78.3089981 106.6019974
  93.2770004  79.0400009 105.5500031  93.8460007  78.5250015 104.7900009
  93.1190033  80.4300003 105.4670029  93.5599976  80.9729996 104.6439972
  92.4059982  81.1110001 106.4589996  92.2689972  82.5149994 106.4049988
  92.6770020  82.8259964 105.5940018  91.9769974  79.0059967 107.5889969
  91.5439987  78.4670029 108.4189987  91.8330002  80.3990021 107.5199966
  91.2850037  80.9240036 108.2880020  91.9850006  76.2669983 104.3880005
  92.7730026  75.6549988 103.6640015  91.1610031  77.2180023 103.8990021
  90.5479965  77.7239990 104.5009995  91.1259995  77.6060028 102.5049973
  91.9250031  77.1190033 101.9660034  89.7710037  77.2279968 101.8430023
  89.7860031  77.5319977 100.7750015  88.9570007  77.7969971 102.3399963
  89.4089966  75.7310028 101.9240036  88.3710022  75.6060028 101.5500031
  89.4079971  75.4100037 102.9879990  90.3430023  74.8330002 101.0910034
  91.4010010  75.0009995 101.3830032  90.2490005  75.1389999 100.0270004
  89.9980011  73.3399963 101.1880035  90.4820023  72.7659988 100.3690033
  88.8970032  73.2080002 101.1269989  90.4589996  72.7789993 102.4649963
  90.3270035  73.4369965 103.2600021  91.4749985  72.5709991 102.3939972
  89.9540024  71.9049988 102.7139969  91.3180008  79.1139984 102.3740005
  90.5000000  79.8939972 102.8659973  92.3850021  79.5729980 101.6770020
  93.0619965  78.9339981 101.3219986  92.4440002  80.9520035 101.2070007
  91.8300018  81.5559998 101.8600006  93.8690033  81.5920029 101.2139969
  94.5059967  81.1340027 100.4270020  94.3369980  81.4059982 102.2040024
  93.8440018  83.1139984 101.0059967  92.7939987  83.7480011 101.3040009
  94.9000015  83.7050018 100.6480026  91.8040009  81.0090027  99.8199997
  91.9489975  80.0960007  99.0019989  91.0630035  82.0920029  99.5579987
  91.0749969  82.8300018 100.2289963  90.3580017  82.3639984  98.3300018
  90.5250015  81.5859985  97.5989990  88.8450012  82.5859985  98.5979996
  88.3369980  82.8919983  97.6579971  88.7279968  83.4199982  99.3209991
  88.1060028  81.3799973  99.1930008  88.6269989  81.0220032 100.1070023
  88.1179962  80.5569992  98.4469986  86.6569977  81.7620010  99.5510025
  86.1790009  82.1719971  98.6360016  86.6979980  82.5770035 100.3040009
  85.8079987  80.6009979 100.0879974  86.3119965  80.1100006 100.9479980
  85.6480026  79.8489990  99.2860031  84.4789963  81.0930023 100.5419998
  84.0800018  81.7519989  99.8440018  84.5729980  81.5999985 101.4449997
  83.8209991  80.3000031 100.6819992  90.9169998  83.6709976  97.8130035
  90.7009964  84.7139969  98.4270020  91.6610031  83.6809998  96.6900024
  91.8249969  82.8590012  96.1510010  92.3909988  84.8919983  96.3479996
  91.8059998  85.7340012  96.6890030  93.7770004  85.0000000  97.0459976
  93.6009979  85.0270004  98.1429977  94.2699966  85.9570007  96.7720032
  94.6490021  83.9039993  96.7440033  94.2760010  83.1250000  97.1640015
  92.5400009  85.1650009  94.8679962  92.4420013  84.2779999  94.0189972
  92.7389984  86.4589996  94.5360031  92.7710037  87.1500015  95.2539978
  92.9390030  86.9339981  93.1829987  93.0260010  86.0810013  92.5260010
  91.7379990  87.7949982  92.6979980  91.6220016  88.6910019  93.3440018
  90.8050003  87.1949997  92.7669983  91.9000015  88.2350006  91.2620010
  92.2259979  89.5630035  90.9390030  92.3679962  90.2819977  91.7320023
  92.3830032  89.9570007  89.6039963  92.6429977  90.9789963  89.3690033
  92.2020035  89.0240021  88.5739975  92.3199997  89.3280029  87.5449982
  91.7129974  87.3119965  90.2200012  91.4540024  86.2910004  90.4589996
  91.8649979  87.6989975  88.8820038  91.7190018  86.9779968  88.0910034
  94.2580032  87.7050018  93.0790024  94.5780029  88.5400009  93.9309998
  95.0410004  87.4260025  92.0210037  94.7379990  86.7239990  91.3809967
  96.3050003  88.0709991  91.7239990  96.5029984  88.8460007  92.4499969
  97.5130005  87.0930023  91.6539993  98.4499969  87.6780014  91.5329971
  97.4049988  86.4380035  90.7630005  97.7009964  86.1740036  92.8489990
  97.0380020  86.2919998  93.9089966  98.6019974  85.2990036  92.7350006
  96.2269974  88.7200012  90.3410034  95.5289993  88.2289963  89.4479980
  96.9840012  89.8150024  90.1129990  97.5510025  90.1959991  90.8389969
  97.1610031  90.3779984  88.7819977  96.7119980  89.7210007  88.0520020
  96.5049973  91.7880020  88.5930023  95.4339981  91.7170029  88.8789978
  96.5419998  92.0690002  87.5179977  97.1500015  92.9140015  89.3809967
  96.5520020  93.3929977  90.5559998  95.6419983  92.9300003  90.9079971
  97.1129990  94.4609985  91.2699966  96.6409988  94.8140030  92.1750031
  98.2900009  95.0640030  90.8109970  98.7310028  95.8799973  91.3649979
  98.3099976  93.5609970  88.9120026  98.7730026  93.2320023  87.9929962
  98.8889999  94.6139984  89.6289978  99.7929993  95.0810013  89.2659988
  98.6429977  90.4339981  88.4329987  99.5090027  90.6149979  89.2939987
  98.9599991  90.3079987  87.1309967  98.2829971  89.9929962  86.4690018
 100.2239990  90.7460022  86.5859985 100.7490005  91.3499985  87.3109970
 101.1309967  89.5749969  86.1480026 100.7239990  89.1009979  85.2289963
 101.1119995  88.8099976  86.9530029 102.5879974  90.0210037  85.9349976
 103.0459976  90.2119980  86.9290009 102.6100006  90.9820023  85.3779984
 103.4410019  89.0110016  85.1500015 104.4970016  89.3560028  85.1829987
 103.1200027  89.0410004  84.0869980 103.3430023  87.5690002  85.6589966
 102.3079987  87.1740036  85.5670013 103.6699982  87.5029984  86.7180023
 104.2220001  86.7190018  84.8499985 105.1989975  87.0709991  84.9079971
 103.9329987  86.7220001  83.8509979 104.2099991  85.7340012  85.1849976
  99.9349976  91.6230011  85.3759995  99.2009964  91.2440033  84.4589996
 100.5220032  92.8300018  85.3649979 101.0999985  93.1139984  86.1269989
 100.3980026  93.8190002  84.3209991  99.7399979  93.4570007  83.5449982
  99.8619995  95.1630020  84.8669968  99.9319992  95.9440002  84.0790024
 100.5009995  95.4779968  85.7200012  98.3970032  95.1220016  85.3339996
  98.2490005  94.2350006  85.9869995  98.0719986  96.3700027  86.1689987
  98.2340012  97.2890015  85.5660019  98.7279968  96.4179993  87.0640030
  97.0139999  96.3470001  86.5080032  97.4489975  94.9960022  84.1330032
  97.6240005  94.0390015  83.5960007  97.6190033  95.8300018  83.4189987
  96.3899994  95.0289993  84.4670029 101.7559967  94.0739975  83.6900024
 102.7060013  94.5400009  84.3219986 101.8850021  93.7519989  82.3960037
 101.0869980  93.4110031  81.9059982 103.0520020  94.0550003  81.5989990
 103.9219971  93.6620026  82.1019974 102.9000015  93.3899994  80.2180023
 102.0469971  93.8779984  79.6999969 102.6330032  92.3249969  80.3889999
 104.1429977  93.4369965  79.3180008 104.9810028  92.9430008  79.8550034
 104.4520035  94.4899979  79.1429977 103.9469986  92.7419968  77.9629974
 103.4710007  91.7470016  78.0989990 104.9270020  92.6289978  77.4530029
 103.0550003  93.6100006  77.1309967 102.7799988  94.5080032  77.4739990
 102.8079987  93.3590012  75.8529968 103.1999969  92.2689972  75.2360001
 103.6279984  91.5199966  75.7429962 103.1660004  92.3020020  74.2369995
 102.2160034  94.2460022  75.0849991 102.3199997  94.0609970  74.1080017
 102.0449982  95.1709976  75.4240036 103.2419968  95.5569992  81.3990021
 102.2939987  96.2870026  81.1009979 104.4830017  96.0520020  81.5370026
 105.2529984  95.4800034  81.8069992 104.7740021  97.4530029  81.3270035
 103.9029999  98.0439987  81.5670013 105.9290009  97.9150009  82.2490005
 106.0510025  99.0130005  82.1289978 106.8750000  97.4270020  81.9300003
 105.7399979  97.6230011  83.7559967 105.7839966  96.5220032  83.8990021
 106.8850021  98.2379990  84.5749969 106.8460007  99.3470001  84.5179977
 107.8669968  97.9069977  84.1760025 106.8089981  97.9339981  85.6409988
 104.3889999  98.1139984  84.2919998 103.5500031  97.6019974  83.7750015
 104.2819977  99.2089996  84.1330032 104.3040009  97.9059982  85.3799973
 105.1289978  97.7509995  79.8649979 104.8030014  98.8199997  79.3420029
 105.7689972  96.7860031  79.1620026 106.0400009  95.9349976  79.6050034
 106.1610031  96.9290009  77.7699966 105.3229980  97.3410034  77.2279968
 107.3830032  97.8750000  77.5869980 107.0329971  98.9150009  77.7639999
 107.7549973  97.8479996  76.5410004 108.5279999  97.6190033  78.5189972
 109.4810028  96.6429977  78.3870010 109.5210037  95.9380035  77.5699997
 110.3909988  96.7440033  79.4039993 111.2050018  96.2099991  79.4830017
 110.0559998  97.7919998  80.2160034 108.8580017  98.3539963  79.7119980
 108.2590027  99.4169998  80.3899994 107.3399963  99.8580017  80.0319977
 108.8349991  99.8529968  81.5849991 108.3489990 100.6309967  82.1549988
 110.6819992  98.3059998  81.3430023 111.6250000  97.9130020  81.6930008
 110.0370026  99.3239975  82.0429993 110.4789963  99.7089996  82.9499969
 106.4769974  95.5759964  77.1190033 106.7689972  94.5859985  77.7939987
 106.4229965  95.5070038  75.7669983 106.1429977  96.3030014  75.2369995
 106.9110031  94.3840027  74.9670029 106.4329987  93.4869995  75.3330002
 106.5849991  94.5569992  73.4509964 106.9609985  93.6689987  72.8990021
 107.1520004  95.4339981  73.0709991 105.0839996  94.7929993  73.1200027
 104.9800034  95.7649994  72.5930023 104.5039978  94.8679962  74.0650024
 104.4390030  93.7249985  72.2300034 103.3550034  93.1979980  72.6149979
 104.9869995  93.4130020  71.1380005 108.4339981  94.1989975  75.0979996
 109.1709976  95.1650009  75.2949982 108.9680023  92.9540024  74.9879990
 108.3970032  92.1529999  74.8259964 110.4189987  92.7580032  74.9670029
 110.8170013  93.2139969  75.8610001 110.8280029  91.2549973  74.9820023
 110.4940033  90.7809982  74.0339966 110.3000031  90.7409973  75.8130035
 112.3550034  91.0469971  75.1589966 112.6780014  91.4700012  76.1340027
 112.9000015  91.5869980  74.3560028 112.7979965  89.5889969  75.1139984
 113.5530014  89.2269974  74.1719971 112.4710007  88.8180008  76.0520020
 111.0859985  93.4530029  73.7669983 110.6009979  93.3679962  72.6340027
 112.2190018  94.1610031  73.9990005 112.6269989  94.1539993  74.9079971
 112.9380035  94.8870010  72.9550018 113.1839981  95.8600006  73.3509979
 112.3460007  94.9540024  72.0540009 114.2300034  94.2109985  72.5889969
 114.6750031  93.2580032  73.2279968 114.9049988  94.7139969  71.5370026
 114.5279999  95.4810028  71.0250015 116.1569977  94.1630020  71.0350037
 115.9789963  93.1269989  70.7880020 116.5370026  94.9229965  69.7320023
 116.6539993  96.0070038  69.9479980 115.7139969  94.8150024  68.9940033
 117.8010025  94.4199982  69.0810013 118.9680023  95.2020035  69.0790024
 118.9720001  96.1549988  69.5879974 120.1190033  94.7679977  68.4100037
 121.0029984  95.3870010  68.4160004 120.1090012  93.5459976  67.7249985
 121.2500000  93.1159973  67.0090027 121.9369965  93.7809982  67.0979996
 117.8050003  93.1910019  68.4000015 116.9089966  92.5879974  68.3799973
 118.9540024  92.7539978  67.7259979 118.9459991  91.8140030  67.1949997
 117.2900009  94.1780014  72.0699997 117.9580002  93.1709976  72.3050003
 117.4530029  95.3150024  72.7789993 116.9140015  96.1220016  72.5530014
 118.4580002  95.4700012  73.8199997 119.2509995  94.7500000  73.6869965
 119.0520020  96.9140015  73.7870026 119.8710022  96.9810028  74.5350037
 118.2689972  97.6330032  74.1090012 119.5899963  97.3949966  72.4739990
 119.0559998  98.3789978  71.6770020 118.1350021  98.9020004  71.8850021
 119.9000015  98.6289978  70.6200027 119.8280029  99.3789978  69.9990005
 120.9899979  97.8079987  70.7050018 120.8330002  97.0049973  71.8629990
 121.8259964  96.0849991  72.2050018 121.7369995  95.4710007  73.0889969
 122.9509964  95.9830017  71.3850021 123.7300034  95.2799988  71.6449966
 122.1129990  97.7050018  69.8929977 122.2320023  98.3259964  69.0169983
 123.0950012  96.7770004  70.2500000 123.9830017  96.6760025  69.6439972
 117.8580017  95.2730026  75.2180023 118.5569992  95.3690033  76.2289963
 116.5329971  95.0199966  75.3069992 116.0139999  94.7809982  74.4899979
 115.7539978  95.3779984  76.4830017 116.4300003  95.7369995  77.2460022
 114.7839966  96.5319977  76.1350021 114.1009979  96.7460022  76.9840012
 114.1559982  96.2139969  75.2760010 115.5049973  97.8430023  75.7600021
 116.4079971  97.6110001  75.1559982 114.6429977  98.7490005  74.8759995
 113.7259979  99.0640030  75.4169998 114.3479996  98.2350006  73.9359970
 115.2180023  99.6640015  74.6159973 115.9710007  98.5879974  77.0130005
 116.7559967  98.0159988  77.5530014 115.1169968  98.7600021  77.7020035
 116.3860016  99.5759964  76.7220001 114.9290009  94.2170029  77.0400009
 114.2399979  93.5540009  76.2580032 114.9449997  93.8990021  78.3410034
 115.5989990  94.7170029  79.3740005 115.4970016  95.8040009  79.1699982
 116.6740036  94.4400024  79.4189987 113.9690018  92.9879990  78.9380035
 114.0569992  92.0240021  78.4589996 114.3560028  92.9619980  80.4250031
 115.1770020  92.2310028  80.5849991 113.5080032  92.6910019  81.0899963
 114.8949966  94.3679962  80.6900024 114.0479965  95.0690002  80.8550034
 115.5790024  94.4110031  81.5650024 112.5149994  93.4189987  78.7699966
 112.2099991  94.6119995  78.7760010 111.5889969  92.4469986  78.6620026
 111.8759995  91.4929962  78.6309967 110.1979980  92.6520004  79.0220032
 109.8460007  93.5579987  78.5500031 109.3300018  91.4700012  78.5260010
 109.8880005  90.5309982  78.7310028 109.2409973  91.5849991  77.4250031
 107.9120026  91.3410034  79.1340027 107.3610001  92.2969971  79.0070038
 107.9680023  91.0979996  80.2170029 107.1419983  90.2310028  78.4260025
 107.6869965  89.4670029  77.6259995 105.8300018  90.1090012  78.7180023
 105.4509964  90.5889969  79.5090027 105.2979965  89.4540024  78.1809998
 110.0469971  92.8359985  80.5240021 110.6510010  92.0940018  81.2939987
 109.2600021  93.8229980  80.9869995 108.7900009  94.4469986  80.3679962
 109.1159973  94.0989990  82.4100037 109.5510025  93.2949982  82.9860001
 109.8180008  95.3870010  82.8270035 109.3750000  96.2269974  82.2509995
 109.6689987  95.7060013  84.3290024 110.1279984  94.9039993  84.9459991
 108.6050034  95.8310013  84.6240005 110.1920013  96.6589966  84.5579987
 111.3160019  95.2519989  82.4909973 111.4869995  95.2020035  81.3949966
 111.7330017  94.3330002  82.9560013 111.8759995  96.1279984  82.8840027
 107.6389999  94.1250000  82.7600021 106.7890015  94.5179977  81.9560013
 107.2880020  93.6610031  83.9710007 107.9950027  93.3320007  84.5920029
 105.9359970  93.6679993  84.4629974 105.3550034  94.3929977  83.9120026
 105.2839966  92.2809982  84.3020020 105.8010025  91.5289993  84.9359970
 105.3450012  91.9560013  83.2409973 104.2119980  92.3160019  84.5910034
 105.8809967  94.0869980  85.9280014 106.8560028  93.9990005  86.6800003
 104.6890030  94.5429993  86.3440018 103.9430008  94.6029968  85.6859970
 104.3160019  94.8529968  87.7040024 105.1409988  94.6360016  88.3669968
 103.9120026  96.3550034  87.8529968 103.2050018  96.6129990  87.0360031
 104.8130035  96.9960022  87.7419968 103.2559967  96.6800003  89.1780014
 101.9329987  97.1549988  89.2310028 101.3830032  97.3109970  88.3140030
 101.3099976  97.4020004  90.4619980 100.2910004  97.7590027  90.4909973
 102.0059967  97.1699982  91.6549988 101.5270004  97.3450012  92.6070023
 103.9509964  96.4830017  90.3830032 104.9710007  96.1289978  90.3590012
 103.3270035  96.7109985  91.6149979 103.8619995  96.5309982  92.5350037
 103.1669998  93.9219971  88.0770035 102.1999969  93.7730026  87.3300018
 103.2399979  93.2419968  89.2330017 104.0179977  93.3560028  89.8470001
 102.1449966  92.3990021  89.6819992 102.3539963  91.3850021  89.3740005
 101.2060013  92.7679977  89.2969971 102.0100021  92.4100037  91.1709976
 102.9100037  92.8339996  91.8949966 100.8610001  91.9150009  91.6600037
 100.1699982  91.5609970  91.0350037 100.5759964  91.8099976  93.0729980
 101.5049973  91.7070007  93.6149979  99.8199997  93.0530014  93.6100006
  98.8570023  93.1559982  93.0670013 100.4359970  93.9400024  93.3529968
  99.5550003  93.0729980  95.1309967 100.4940033  92.8280029  95.6719971
  98.8180008  92.2860031  95.3980026  99.0429993  94.4580002  95.5780029
  98.1770020  94.7190018  94.9329987  99.8310013  95.2139969  95.3779984
  98.5739975  94.5790024  97.0390015  97.7689972  93.8440018  97.2539978
  98.1709976  95.6009979  97.2060013  99.6709976  94.3610001  98.0090027
 100.6200027  94.5080032  97.6100006  99.6169968  93.3949966  98.3919983
  99.5640030  94.9990005  98.8229980  99.7750015  90.5459976  93.3209991
  98.7929993  90.2450027  92.6370010 100.2149963  89.7610016  94.3170013
 100.9929962  90.0589981  94.8649979  99.5910034  88.5299988  94.7379990
  99.0029984  88.1409988  93.9199982 100.6350021  87.4540024  95.1370010
 100.1019974  86.5830002  95.5749969 101.3069992  87.8710022  95.9169998
 101.4729996  86.9380035  93.9469986 102.0449982  87.7809982  93.5029984
 100.7630005  86.5699997  93.1760025 102.4540024  85.8170013  94.3239975
 101.9339981  85.0260010  94.9059982 103.2900009  86.2399979  94.9209976
 102.9690018  85.2170029  93.0479965 102.4619980  85.3720016  92.2009964
 103.9530029  84.3290024  92.9789963 104.7119980  84.0189972  94.0059967
 104.5220032  84.4240036  94.9000015 105.3949966  83.2979965  93.8860016
 104.1930008  83.6999969  91.8460007 103.5569992  83.7880020  91.0790024
 104.8850021  82.9769974  91.8349991  98.6389999  88.7730026  95.9010010
  98.9400024  89.5370026  96.8199997  97.4489975  88.1419983  95.8690033
  97.2419968  87.5500031  95.0940018  96.5149994  88.0950012  96.9769974
  95.7279968  87.4550018  96.6070023  97.1389999  87.4150009  98.2399979
  97.6610031  88.1650009  98.8720016  97.8929977  86.6790009  97.8889999
  96.1119995  86.6719971  99.0930023  94.9639969  87.0090027  99.3140030
  96.6230011  85.5159988  99.6409988  95.9219971  84.9789963 100.0179977
  95.8399963  89.4520035  97.2419968  95.6780014  89.8740005  98.3889999
  95.4570007  90.1890030  96.1669998  95.5490036  89.8119965  95.2490005
  94.8740005  91.5279999  96.2409973  95.5619965  92.1149979  96.8320007
  94.7350006  92.2330017  94.8759995  94.7789993  93.3239975  95.0770035
  95.9619980  91.8730011  94.0100021  95.8899994  90.8359985  93.6179962
  96.9020004  91.9710007  94.5940018  96.0360031  92.5589981  93.1389999
  93.3960037  91.9919968  94.1230011  92.5469971  92.3420029  94.7480011
  93.2669983  90.9029999  93.9430008  93.2929993  92.7379990  92.7880020
  93.9729996  92.2839966  92.0360031  93.5569992  93.8099976  92.9150009
  92.2580032  92.6770020  92.3899994  93.5500031  91.5240021  96.9960022
  93.2699966  92.4049988  97.8089981  92.7379990  90.4789963  96.7429962
  93.0289993  89.8130035  96.0599976  91.5390015  90.1360016  97.4560013
  91.3769989  90.8270035  98.2699966  90.3209991  90.0989990  96.5090027
  90.4599991  89.3399963  95.7089996  90.1880035  91.0859985  96.0159988
  89.3909988  89.8590012  97.0670013  91.7620010  88.7470016  98.0270004
  92.3420029  87.8919983  97.3550034  91.3209991  88.5070038  99.2789993
  90.9189987  89.2440033  99.8170013  91.4589996  87.2170029  99.9469986
  92.2880020  86.6630020  99.5309982  90.5100021  86.7080002  99.8639984
  91.7279968  87.3980026 101.4079971  91.4359970  88.4489975 101.9769974
  92.2819977  86.3759995 102.0859985  92.4769974  85.5009995 101.6490021
  92.5569992  86.4580002 103.5210037  91.9020004  87.1930008 103.9649963
  92.2979965  85.1579971 104.2900009  92.4570007  85.3349991 105.3759995
  93.1190033  84.0729980 103.8880005  92.9589996  83.9879990 102.9449997
  90.8349991  84.7320023 104.0839996  90.6380005  84.4759979 103.0210037
  90.1470032  85.5530014 104.3820038  90.5979996  83.8399963 104.7020035
  93.9749985  86.9509964 103.7799988  94.3730011  87.1930008 104.9199982
  94.7440033  87.2020035 102.6949997  94.3850021  86.9489975 101.8000031
  95.9720001  87.9899979 102.7170029  95.8550034  88.7959976 103.4250031
  96.1289978  88.3560028 101.7129974  97.2210007  87.2419968 103.1029968
  98.2399979  87.8580017 103.4140015  97.1969986  85.8960037 103.0709991
  96.3509979  85.4179993 102.8470001  98.3410034  85.0579987 103.4010010
  98.6510010  85.3069992 104.4049988  97.9820023  83.5510025 103.3440018
  98.8649979  82.9619980 103.6709976  97.7549973  83.2610016 102.2959976
  96.7809982  83.1139984 104.2109985  95.8580017  83.5599976 103.7829971
  96.6309967  81.5859985 104.1460037  97.5589981  81.0940018 104.5090027
  96.4459991  81.2590027 103.1009979  95.7860031  81.2529984 104.7860031
  96.8939972  83.5830002 105.6709976  96.8820038  84.6920013 105.7330017
  97.8359985  83.2099991 106.1269989  96.0390015  83.1920013 106.2639999
  99.5550003  85.2829971 102.5000000 100.6969986  85.3600006 102.9609985
  99.3130035  85.4219971 101.1819992  98.3779984  85.3470001 100.8450012
 100.3470001  85.4800034 100.1669998 101.2959976  85.1989975 100.5979996
 100.0319977  84.5029984  98.9980011 100.8669968  84.4720001  98.2659988
  99.1009979  84.7990036  98.4690018  99.8570023  83.1169968  99.5569992
 100.9649963  82.4400024 100.0930023 101.9359970  82.9120026 100.0660019
 100.8170013  81.1829987 100.6910019 101.6740036  80.6780014 101.1119995
  99.5530014  80.5879974 100.7500000  99.4380035  79.6230011 101.2210007
  98.5970001  82.4950027  99.5970001  97.7330017  83.0039978  99.1959991
  98.4430008  81.2419968 100.2009964  97.4649963  80.7860031 100.2470016
 100.5260010  86.8919983  99.6250000 101.0250015  87.0800018  98.5149994
 100.1259995  87.9359970 100.3939972  99.7409973  87.7779999 101.3010025
 100.2679977  89.3190002  99.9729996  99.7340012  89.4059982  99.0380020
  99.5979996  90.3199997 100.9629974 100.0179977  90.1740036 101.9810028
  98.5049973  90.1230011 100.9980011  99.8160019  91.7689972 100.5339966
  99.4430008  92.1169968  99.3820038 100.3909988  92.5709991 101.3160019
 101.7129974  89.7249985  99.6650009 102.6370010  89.5329971 100.4560013
 101.9150009  90.3379974  98.4940033 101.1510010  90.4580002  97.8649979
 103.2009964  90.8300018  98.0719986 103.9140015  90.0189972  98.0869980
 103.4700012  91.6719971  98.6920013 103.0869980  91.3040009  96.6630020
 102.2500000  90.8310013  95.8970032 103.9380035  92.2559967  96.2819977
 104.6360016  92.5970001  96.9059982 103.9440002  92.8280029  94.9589996
 103.4670029  92.1419983  94.2760010 103.2190018  94.1969986  94.8550034
 102.1439972  94.0410004  95.0869980 103.2610016  94.5299988  93.7959976
 103.7570038  95.3519974  95.7310028 103.2829971  96.2929993  95.3789978
 104.8560028  95.4580002  95.6060028 103.4219971  95.2300034  97.2129974
 104.2919998  95.6070023  98.0390015 102.2890015  94.8150024  97.5849991
 105.3720016  92.9130020  94.4940033 106.3160019  92.7839966  95.2760010
 105.5569992  93.0439987  93.1750031 104.7750015  93.1179962  92.5609970
 106.8450012  92.8320007  92.5719986 107.6070023  93.2020035  93.2429962
 107.1019974  91.3180008  92.3069992 107.1539993  90.7979965  93.2880020
 108.0729980  91.1589966  91.7900009 105.9970016  90.6689987  91.5009995
 104.9459991  89.9739990  92.1299973 104.9020004  89.9359970  93.2089996
 103.9639969  89.3219986  91.3700027 103.1689987  88.7870026  91.8669968
 104.0260010  89.3529968  89.9720001 103.0559998  88.6819992  89.1910019
 102.4219971  88.2630005  89.7770004 106.0400009  90.6959991  90.0970001
 106.8420029  91.2269974  89.6060028 105.0579987  90.0490036  89.3349991
 105.1039963  90.0739975  88.2559967 107.0139999  93.6309967  91.2959976
 106.0640030  93.9069977  90.5609970 108.2760010  93.9850006  91.0100021
 109.0000000  93.7559967  91.6559982 108.7139969  94.5429993  89.7519989
 107.8880005  94.5999985  89.0589981 109.3789978  95.9359970  89.9079971
 109.8710022  96.2279968  88.9560013 110.1630020  95.8679962  90.6920013
 108.3970032  97.0640030  90.2900009 107.8300018  96.7429962  91.1900024
 109.1579971  98.3479996  90.6549988 109.7450027  98.7119980  89.7839966
 109.8560028  98.1589966  91.4980011 108.4479980  99.1449966  90.9599991
 107.3929977  97.3440018  89.1610031 106.7929993  96.4359970  88.9369965
 107.9260025  97.6520004  88.2360001 106.6969986  98.1579971  89.4550018
 109.7129974  93.5609970  89.1790009 110.7310028  93.2419968  89.7959976
 109.4189987  93.0110016  87.9909973 108.6149979  93.2990036  87.4759979
 110.1179962  91.8479996  87.4869995 111.0910034  91.7789993  87.9499969
 109.3529968  90.5630035  87.8020020 109.1750031  90.5550003  88.8990021
 107.9800034  90.5309982  87.1050034 108.1060028  90.5240021  86.0019989
 107.3629990  91.4140015  87.3779984 107.4240036  89.6149979  87.3970032
 110.1900024  89.3199997  87.4440002 111.1900024  89.3669968  87.9260025
 110.3290024  89.2340012  86.3450012 109.6760025  88.4029999  87.8040009
 110.3820038  92.0090027  86.0090027 109.5559998  92.5260010  85.2580032
 111.5869980  91.6060028  85.5790024 112.2310028  91.2080002  86.2269974
 112.1119995  91.7210007  84.2470016 111.3659973  92.1569977  83.5979996
 113.3710022  92.6080017  84.2890015 114.1380005  92.1650009  84.9599991
 113.1100006  93.6139984  84.6829987 113.8109970  92.7320023  83.2770004
 112.4869995  90.3450012  83.6979980 113.0999985  89.5289993  84.3870010
 112.1179962  90.0520020  82.4380035 111.5979996  90.7259979  81.9179993
 112.4199982  88.7959976  81.7649994 113.1910019  88.2740021  82.3130035
 111.2099991  87.8399963  81.6139984 111.5049973  86.9260025  81.0550003
 110.4000015  88.3420029  81.0410004 110.7020035  87.4440002  82.8889999
 111.3310013  86.8259964  83.2679977 112.9550018  89.0640030  80.3730011
 112.3300018  89.7559967  79.5660019 114.1429977  88.5299988  80.0479965
 114.6279984  87.9609985  80.7080002 114.7770004  88.7239990  78.7620010
 114.0780029  89.1890030  78.0830002 116.0329971  89.6259995  78.8720016
 116.7300034  89.1790009  79.6129990 115.7089996  90.6080017  79.2799988
 116.8020020  89.8740005  77.5599976 117.2880020  88.9260025  77.2440033
 117.6119995  90.6080017  77.7610016 115.9150009  90.3909988  76.4120026
 115.4089966  91.3290024  76.7249985 115.1330032  89.6220016  76.2409973
 116.6569977  90.6139984  75.0869980 117.2710037  89.7170029  74.8590012
 117.3199997  91.5039978  75.1439972 115.7060013  90.8030014  73.9670029
 115.2900009  91.7559967  73.9710007 114.9300003  90.1159973  74.0510025
 116.1699982  90.6589966  73.0479965 115.1630020  87.4020004  78.1230011
 115.9130020  86.5979996  78.6839981 114.6589966  87.1559982  76.8990021
 114.0230026  87.7969971  76.4769974 115.0490036  86.0110016  76.1119995
 115.3059998  85.2170029  76.7969971 113.8929977  85.4479980  75.2399979
 113.4250031  86.2880020  74.6839981 113.1320038  85.0339966  75.9349976
 114.3369980  84.3560028  74.2320023 114.9599991  83.6060028  74.7639999
 114.9479980  84.8059998  73.4209976 113.1669998  83.6119995  73.5830002
 111.9940033  83.9840012  73.6709976 113.5070038  82.5000000  72.8870010
 114.4670029  82.2220001  72.8499985 112.7880020  81.9729996  72.4349976
 116.3000031  86.2549973  75.2720032 116.4319992  87.2630005  74.5739975
 117.2460022  85.3030014  75.3190002 117.1050034  84.5080032  75.9039993
 118.3830032  85.2369995  74.4339981 118.1699982  85.7779999  73.5240021
 119.6660004  85.7809982  75.0830002 119.9029999  85.2300034  76.0179977
 119.5360031  86.8550034  75.3389969 120.5299988  85.6969986  74.3889999
 118.5729980  83.7779999  74.0660019 118.5989990  82.9069977  74.9349976
 118.6819992  83.4509964  72.7580032 118.7850037  84.1660004  72.0699997
 118.6279984  82.0670013  72.2779999 119.5599976  81.6210022  72.5910034
 118.5240021  82.1029968  71.2040024 117.4509964  81.2399979  72.8109970
 116.3539963  81.7870026  72.9660034 117.5800018  79.9449997  73.0910034
 118.7659988  79.1409988  72.7699966 119.6940002  79.5830002  73.1910019
 118.8529968  79.0449982  71.6660004 116.5390015  79.1579971  73.7610016
 115.5739975  79.3909988  73.3359985 116.9779968  77.7170029  73.4420013
 116.5989990  77.4440002  72.4329987 116.6149979  76.9589996  74.1689987
 118.5029984  77.7770004  73.4049988 118.8960037  77.7580032  74.4440002
 118.9509964  76.9420013  72.8259964 116.4339981  79.4059982  75.2779999
 115.8690033  78.5709991  75.9879990 116.9209976  80.5380020  75.8170013
 117.3600006  81.2340012  75.2549973 116.9169998  80.8040009  77.2450027
 116.4739990  79.9800034  77.7860031 118.3270035  81.0739975  77.8199997
 118.2720032  81.1839981  78.9240036 118.7470016  82.0090027  77.3909988
 119.2799988  79.9670029  77.4970016 119.4830017  78.9160004  78.4049988
 118.9390030  78.8970032  79.3369980 120.3850021  77.8909988  78.1029968
 120.5360031  77.0800018  78.8000031 121.0749969  77.9020004  76.8850021
 121.7429962  77.0910034  76.6340027 120.0329971  80.0019989  76.3089981
 119.9059982  80.8249969  75.6200027 120.9179993  78.9680023  75.9960022
 121.4720001  78.9879990  75.0690002 116.1110001  82.0500031  77.5559998
 116.2210007  83.0719986  76.8779984 115.2939987  82.0019989  78.6210022
 115.1740036  81.1510010  79.1269989 114.6129990  83.1620026  79.1449966
 114.8769989  84.0350037  78.5650024 113.0749969  82.9710007  79.0739975
 112.7720032  82.1429977  79.7500000 112.7919998  82.6969986  78.0350037
 112.2969971  84.2190018  79.4560013 112.8939972  85.3199997  79.5670013
 111.0439987  84.1320038  79.5550003 115.1289978  83.4189987  80.5619965
 115.0210037  82.5770035  81.4599991 115.7409973  84.5960007  80.7699966
 115.7779999  85.2610016  80.0279999 116.4160004  84.9720001  81.9919968
 116.5199966  84.1090012  82.6320038 117.8190002  85.5699997  81.7200012
 118.3330002  85.8320007  82.6689987 117.7350006  86.4860001  81.0970001
 118.6740036  84.5670013  80.9929962 119.1039963  83.4029999  81.6520004
 118.7919998  83.2259979  82.6709976 119.9469986  82.4860001  81.0100021
 120.2829971  81.6009979  81.5299988 120.3809967  82.7369995  79.7020035
 121.0439987  82.0419998  79.2099991 119.0940018  84.7929993  79.6709976
 118.7689972  85.6829987  79.1520004 119.9440002  83.8860016  79.0279999
 120.2750015  84.0780029  78.0189972 115.5940018  86.0009995  82.7490005
 115.2620010  87.0719986  82.2369995 115.2409973  85.6770020  84.0049973
 115.5739975  84.8290024  84.4110031 114.3170013  86.4440002  84.8270035
 113.9400024  87.2809982  84.2580032 113.1110001  85.6220016  85.2730026
 113.4499969  84.6500015  85.6920013 112.2630005  85.3880005  84.1529999
 112.7229996  84.7910004  83.5589981 112.2330017  86.3339996  86.3130035
 111.9039993  87.3219986  85.9280014 112.7679977  86.4759979  87.2770004
 111.3330002  85.7180023  86.5260010 115.0220032  87.0250015  86.0350037
 115.8209991  86.3610001  86.6979980 114.7440033  88.3020020  86.3399963
 114.1210022  88.8170013  85.7570038 115.2860031  89.0270004  87.4670029
 115.5599976  88.3430023  88.2570038 116.5019989  89.8750000  87.0179977
 116.1849976  90.5049973  86.1589966 117.2870026  89.1829987  86.6419983
 117.1269989  90.8000031  88.0839996 116.3320007  91.4240036  88.5449982
 117.8209991  90.0080032  89.2020035 118.6340027  89.3779984  88.7809982
 117.0960007  89.3479996  89.7249985 118.2659988  90.7009964  89.9479980
 118.1100006  91.7730026  87.4209976 117.6100006  92.3509979  86.6149979
 118.9660034  91.2180023  86.9810028 118.5019989  92.4889984  88.1740036
 114.2080002  89.9560013  87.9980011 113.5279999  90.6370010  87.2330017
 113.9960022  90.0299988  89.3239975 114.5029984  89.4609985  89.9660034
 113.0400009  90.9840012  89.8649979 112.0599976  90.5329971  89.8130035
 113.1110001  91.9130020  89.3199997 113.2969971  91.3259964  91.3020020
 114.1129990  90.7070007  91.9779968 112.5630035  92.3310013  91.8050003
 111.9079971  92.7990036  91.2160034 112.5339966  92.7080002  93.1999969
 113.1330032  92.0250015  93.7839966 113.0289993  94.1579971  93.4400024
 112.3580017  94.8690033  92.9130020 114.0360031  94.2460022  92.9779968
 113.1269989  94.5469971  94.9319992 113.8339996  93.8519974  95.4339981
 112.1330032  94.3889999  95.4010010 113.6169968  96.2710037  95.2590027
 115.3170013  96.2369995  94.6380005 115.3440018  96.0240021  93.5479965
 115.9130020  95.4570007  95.1589966 115.8190002  97.2149963  94.8040009
 111.0950012  92.5780029  93.6640015 110.1589966  93.0000000  92.9800034
 110.8840027  91.9530029  94.8320007 111.6500015  91.5729980  95.3450012
 109.5770035  91.7730026  95.4079971 108.8509979  92.3700027  94.8750000
 109.1399994  90.2990036  95.3690033 109.8820038  89.6589966  95.8929977
 109.0599976  89.9449997  94.3190002 108.1460037  90.1669998  95.8460007
 109.5449982  92.2460022  96.8479996 110.5640030  92.3399963  97.5370026
 108.3259964  92.5500031  97.3130035 107.5459976  92.4710007  96.6979980
 108.0100021  93.0490036  98.6259995 108.8619995  92.9359970  99.2799988
 107.5550003  94.5339966  98.5839996 107.2160034  94.8369980  99.5979996
 106.6780014  94.6139984  97.9069977 108.5810013  95.5250015  98.1200027
 109.2549973  96.3880005  98.9459991 109.1660004  96.3899994 100.0220032
 110.0110016  97.2539978  98.1910019 110.4059982  98.0950012  98.4879990
 109.8730011  96.9560013  96.8730011 108.9840012  95.8580017  96.7730026
 108.6640015  95.3590012  95.5070038 107.9729996  94.5380020  95.3880005
 109.2480011  95.9459991  94.3820038 109.0159988  95.5650024  93.3990021
 110.4339981  97.5540009  95.7570038 111.1090012  98.3919983  95.8470001
 110.1149979  97.0270004  94.5039978 110.5500031  97.4619980  93.6169968
 106.8809967  92.1890030  99.1750031 106.2109985  91.4670029  98.4339981
 106.6449966  92.2099991 100.5070038 107.1859970  92.8010025 101.0989990
 105.6910019  91.3020020 101.1510010 104.7519989  91.3479996 100.6190033
 105.5960007  91.6090012 102.1819992 106.1679993  89.8669968 101.1640015
 107.3180008  89.5979996 101.4909973 105.3030014  88.8960037 100.8130035
 104.3649979  89.1409988 100.5790024 105.5550003  87.4629974 100.9150009
 105.7259979  87.2490005 101.9599991 104.2799988  86.6969986 100.4499969
 104.0729980  86.9020004  99.3779984 103.4059982  87.0630035 101.0309982
 104.3750000  85.2050018 100.6569977 104.6910019  84.3359985  99.5979996
 104.8949966  84.7379990  98.6169968 104.7529984  82.9509964  99.8089981
 105.0059967  82.2910004  98.9929962 104.4840012  82.4199982 101.0790024
 104.5599976  81.0309982 101.2910004 104.3539963  80.8730011 102.2149963
 104.0960007  84.6620026 101.9219971 103.8280029  85.3180008 102.7369995
 104.1529999  83.2789993 102.1340027 103.9359970  82.8799973 103.1149979
 106.8069992  86.9840012 100.1640015 107.6190033  86.2170029 100.6829987
 107.0449982  87.4940033  98.9369965 106.3889999  88.1110001  98.5100021
 108.2340012  87.1559982  98.1740036 108.5920029  86.1780014  98.4580002
 107.8850021  87.1250000  96.6729965 107.4759979  88.1019974  96.3379974
 107.1179962  86.3450012  96.4789963 108.7809982  86.8850021  96.0619965
 109.3710022  88.1460037  98.4420013 110.4430008  88.0709991  97.8460007
 109.1630020  89.0719986  99.4029999 108.2779999  89.0960007  99.8619995
 110.1429977  90.0240021  99.9059982 109.6289978  90.9599991 100.0650024
 110.9599991  90.1200027  99.2060013 110.7160034  89.6149979 101.2419968
 111.6380005  90.2500000 101.7509995 110.1819992  88.5309982 101.8460007
 109.4440002  88.0599976 101.3690033 110.4229965  88.0910034 103.2149963
 110.0709991  88.8740005 103.8690033 109.6620026  86.7659988 103.5009995
 110.1019974  86.2220001 104.3639984 109.7249985  86.1149979 102.6019974
 108.1940002  86.9850006 103.8679962 107.7320023  88.0770035 104.2040024
 107.4219971  85.8720016 103.8339996 106.4609985  85.9420013 104.1019974
 107.8270035  85.0139999 103.5159988 111.8840027  87.8789978 103.6080017
 112.2659988  88.1740036 104.7409973 112.7500000  87.3649979 102.7030029
 112.4609985  87.1250000 101.7789993 114.1449966  87.1269989 103.0360031
 114.1800003  86.6019974 103.9789963 114.8059998  86.2379990 101.9649963
 114.8509979  86.7620010 100.9860001 114.2210007  85.3030014 101.8300018
 115.8399963  85.9629974 102.2630005 114.9619980  88.4089966 103.2220001
 115.9940033  88.4020004 103.8949966 114.4860001  89.5510025 102.6679993
 113.6139984  89.5250015 102.1849976 115.0579987  90.8759995 102.8949966
 115.0090027  91.0749969 103.9560013 114.4680023  91.5800018 102.3270035
 116.5009995  91.0530014 102.4779968 117.2929993  91.6539993 103.2040024
 116.8909988  90.5230026 101.2990036 116.2269974  90.0759964 100.7050018
 118.2900009  90.4660034 100.8939972 118.8590012  90.2070007 101.7750015
 118.5530014  89.3079987  99.8830032 118.1780014  88.3649979 100.3349991
 119.6500015  89.2070007  99.7389984 117.9120026  89.4850006  98.5059967
 117.3960037  90.5390015  98.1299973 117.9400024  88.3970032  97.6999969
 117.4179993  88.4229965  96.8479996 118.4290009  87.5690002  97.9759979
 118.8690033  91.8140030 100.4329987 120.0879974  91.9769974 100.3349991
 118.0159988  92.8280029 100.1829987 117.0319977  92.6949997 100.2720032
 118.4420013  94.1419983  99.7460022 119.4589996  94.3030014 100.0719986
 118.3980026  94.2969971  98.2190018 118.9889984  93.4540024  97.8020020
 116.9540024  94.1610031  97.6819992 116.3239975  95.0179977  98.0039978
 116.4820023  93.2190018  98.0360031 116.9660034  94.1360016  96.5709991
 119.0859985  95.6039963  97.7500000 120.0469971  95.7099991  98.2969971
 118.4459991  96.4739990  98.0100021 119.3850021  95.6380005  96.2470016
 118.4420013  95.6309967  95.6589966 119.9940033  94.7580032  95.9479980
 119.9469986  96.5589981  95.9830017 117.5970001  95.2020035 100.4400024
 116.4209976  95.0070038 100.7529984 118.1910019  96.3730011 100.7600021
 119.1640015  96.5179977 100.6019974 117.4560013  97.5169983 101.3010025
 116.9599991  97.1839981 102.1999969 118.3619995  98.6989975 101.6559982
 118.7910004  99.1370010 100.7289963 119.4580002  98.2799988 102.4680023
 119.0910034  97.8730011 103.2559967 117.6060028  99.7939987 102.4290009
 117.1269989  99.3789978 103.3420029 116.8209991 100.2639999 101.7990036
 118.3069992 100.5979996 102.7399979 116.3899994  98.0120010 100.3290024
 116.6480026  98.1979980  99.1389999 115.1480026  98.2389984 100.8140030
 114.9469986  98.0680008 101.7760010 114.0520020  98.7539978 100.0080032
 113.9440002  98.0770035  99.1740036 112.7409973  98.6589966 100.8509979
 112.9089966  99.1829987 101.8160019 112.5510025  97.5889969 101.0800018
 111.4789963  99.2379990 100.2070007 111.4550018  99.7340012  99.0800018
 110.3450012  99.1210022 100.9309998 109.4879990  99.3830032 100.4869995
 110.3460007  98.5630035 101.7610016 114.3550034 100.1750031  99.4739990
 114.6210022 101.0640030 100.2880020 114.3450012 100.4710007  98.1669998
 114.0719986  99.5090027  97.0950012 113.1269989  98.9509964  97.2720032
 114.9229965  98.7979965  97.0240021 114.8420029 101.7399979  97.6380005
 115.7890015 101.9700012  98.1019974 114.9729996 101.4909973  96.1220016
 116.0019989 101.1299973  95.9100037 114.7829971 102.3949966  95.5049973
 113.9820023 100.3610001  95.8310013 112.9560013 100.7750015  95.7300034
 114.2379990  99.7880020  94.9140015 113.9020004 102.8909988  97.9540024
 114.3489990 104.0370026  98.0199966 112.5970001 102.6240005  98.1419983
 112.2669983 101.6859970  98.0660019 111.5999985 103.6439972  98.4069977
 111.7900009 104.4769974  97.7470016 110.1780014 103.1050034  98.1179962
 109.4130020 103.8809967  98.3369980 109.9599991 102.2050018  98.7310028
 110.0520020 102.7620010  96.6579971 109.9260025 103.7890015  95.7060013
 109.9339981 104.8190002  96.0309982 109.7910004 103.4899979  94.3440018
 109.6989975 104.2870026  93.6220016 109.7710037 102.1549988  93.9219971
 109.6589966 101.9199982  92.8740005 110.0240021 101.4260025  96.2210007
 110.1090012 100.6269989  96.9430008 109.8860016 101.1230011  94.8610001
 109.8529968 100.0940018  94.5339966 111.6819992 104.2089996  99.8229980
 111.2210007 105.3160019 100.0960007 112.3509979 103.4919968 100.7529984
 112.7080002 102.5920029 100.5149994 112.6640015 103.9700012 102.0930023
 111.7300034 104.2289963 102.5690002 113.3539963 102.8799973 102.9479980
 113.6500015 103.3040009 103.9319992 114.2839966 102.5510025 102.4380035
 112.2519989 101.4589996 103.2249985 111.4889984 102.0550003 104.1299973
 113.5189972 105.2330017 102.1159973 113.3590012 106.1009979 102.9749985
 114.4589996 105.3730011 101.1539993 114.6080017 104.6470032 100.4869995
 115.2050018 106.6039963 100.9499969 115.7129974 106.8410034 101.8730011
 116.2659988 106.4300003  99.8330002 116.7750015 107.4029999  99.6650009
 115.7630005 106.1449966  98.8840027 117.3470001 105.3820038 100.1729965
 116.8649979 104.3960037 100.3489990 117.8450012 105.6920013 101.1169968
 118.4010010 105.2220001  99.0690002 118.9130020 106.1900024  98.8809967
 117.9229965 104.8570023  98.1350021 119.3970032 104.2139969  99.5569992
 119.3079987 103.8430023 100.4810028 120.4469986 103.7979965  98.8580017
 120.6979980 104.2160034  97.6360016 120.0790024 104.8730011  97.2070007
 121.5009995 103.8730011  97.1500015 121.2799988 102.9329987  99.4029999
 121.1240005 102.6119995 100.3369980 122.0800018 102.6240005  98.8889999
 114.3140030 107.8030014 100.6090012 114.4759979 108.8990021 101.1490021
 113.3239975 107.5999985  99.7119980 113.2089996 106.7009964  99.2959976
 112.3320007 108.6019974  99.3529968 112.8690033 109.4889984  99.0510025
 111.4810028 108.1559982  98.1610031 110.9280014 107.2249985  98.4110031
 110.4580002 109.2460022  97.7799988 110.9739990 110.2139969  97.6029968
 109.6930008 109.3870010  98.5729980 109.9280014 108.9599991  96.8460007
 112.4059982 107.8720016  96.9589996 113.0869980 107.0169983  97.1539993
 113.0179977 108.7679977  96.7220001 111.7979965 107.6220016  96.0630035
 111.4349976 109.0210037 100.5220032 111.2180023 110.2129974 100.7580032
 110.9120026 108.0540009 101.3109970 111.0960007 107.0920029 101.1259995
 110.0410004 108.3669968 102.4359970 110.4219971 109.2500000 102.9280014
 108.5709991 108.6269989 101.9789963 108.1790009 107.7099991 101.4879990
 108.5719986 109.4319992 101.2139969 107.6910019 108.9950027 103.0530014
 107.8359985 109.9219971 103.2539978 110.0390015 107.2519989 103.4779968
 110.2009964 106.0709991 103.1679993 109.8040009 107.6029968 104.7639999
 109.6490021 108.5589981 104.9990005 109.8109970 106.6689987 105.8789978
 110.6699982 106.0220032 105.7789993 109.8750000 107.4260025 107.2360001
 109.7030029 106.7249985 108.0810013 109.0830002 108.2050018 107.2639999
 111.2239990 108.0849991 107.4929962 112.2379990 107.7549973 106.8249969
 111.2949982 108.8919983 108.4619980 108.5920029 105.7460022 105.9079971
 108.6050034 104.7040024 106.5630035 107.5019989 106.0810013 105.1790009
 107.4950027 106.9319992 104.6600037 106.2919998 105.2710037 105.1269989
 105.9609985 105.1389999 106.1470032 105.1500015 105.9820023 104.3550034
 105.0100021 106.9800034 104.8229980 104.2040024 105.4199982 104.5090027
 105.3600006 106.1819992 102.8440018 105.3870010 105.1949997 102.3339996
 106.3330002 106.6859970 102.6610031 104.2259979 107.0319977 102.2340012
 104.2379990 108.0240021 102.7340012 103.2580032 106.5429993 102.4739990
 104.3450012 107.2180023 100.7129974 104.2850037 106.2320023 100.2050018
 105.3160019 107.6959991 100.4609985 103.2490005 108.0800018 100.1910019
 103.2770004 109.0169983 100.6409988 102.3180008 107.6549988 100.3740005
 103.3519974 108.2099991  99.1650009 106.5299988 103.8679962 104.5719986
 105.9089966 102.8970032 105.0000000 107.4840012 103.7289963 103.6259995
 107.9800034 104.5360031 103.3140030 107.8290024 102.4749985 102.9810028
 106.9079971 101.9800034 102.7109985 108.6600037 102.7220001 101.6969986
 108.9540024 101.7639999 101.2170029 109.5839996 103.2929993 101.9319992
 107.8399963 103.4950027 100.6989975 106.8960037 102.8320007  99.8970032
 106.7389984 101.7710037 100.0220032 106.1709976 103.5299988  98.9199982
 105.4520035 103.0000000  98.3130035 106.3909988 104.9010010  98.7330017
 105.6709976 105.6240005  97.7539978 105.1039963 105.0149994  97.2740021
 108.0490036 104.8710022 100.5029984 108.7919998 105.3870010 101.0920029
 107.3320007 105.5699997  99.5240021 107.5110016 106.6240005  99.3710022
 108.5749969 101.4919968 103.8730011 108.6169968 100.2959976 103.5940018
 109.1559982 101.9580002 104.9970016 109.1080017 102.9290009 105.2170029
 109.8270035 101.1230011 105.9830017 110.6070023 100.5749969 105.4729996
 110.4759979 101.9820023 107.1009979 110.9779968 101.3130035 107.8310013
 109.6780014 102.5260010 107.6500015 111.6949997 103.1719971 106.4430008
 112.0240021 103.6920013 107.6159973 108.9229965 100.0759964 106.6279984
 109.3489990  98.9560013 106.9120026 107.6460037 100.4300003 106.8759995
 107.3079987 101.3150024 106.5650024 106.7229996  99.6179962 107.6490021
 107.2369995  98.7590027 108.0540009 106.1480026 100.4349976 108.8300018
 105.4789963  99.8059998 109.4550018 105.5500031 101.2860031 108.4369965
 107.9800034 100.2639999 110.5920029 107.9100037  99.2799988 110.7549973
 107.2369995 101.0059967 109.6969986 108.8099976 101.1250000 111.2320023
 109.5149994 100.8010025 111.9980011 108.6449966 102.3710022 110.8180008
 107.6480026 102.2959976 109.8519974 107.3000031 103.1859970 109.3440018
 105.5709991  99.1090012 106.7979965 104.9010010  99.8639984 106.0950012
 105.3050003  97.7900009 106.8590012 105.8489990  97.1900024 107.4410019
 104.2160034  97.1409988 106.1510010 103.6679993  97.8499985 105.5479965
 104.7740021  95.9929962 105.2720032 105.1480026  95.1689987 105.9160004
 105.6500015  96.4039993 104.7269974 103.7900009  95.4440002 104.2180023
 103.5800018  96.2529984 103.4860001 102.8290024  95.1740036 104.7050018
 104.3249969  94.2070007 103.4820023 104.3639984  93.3410034 104.1770020
 105.3499985  94.3720016 103.0859985 103.3669968  93.8850021 102.3740005
 102.5270004  93.3830032 102.5790024 103.4860001  94.2939987 101.1169968
 104.4789963  95.0110016 100.6569977 105.1699982  95.3970032 101.2689972
 104.4120026  95.2890015  99.6989975 102.5540009  93.9589996 100.2519989
 101.7600021  93.4530029 100.5879974 102.6240005  94.3229980  99.3229980
 103.2819977  96.5699997 107.2060013 103.7300034  96.0469971 108.2300034
 101.9530029  96.6869965 107.0169983 101.5970001  97.1299973 106.1979980
 100.9639969  96.1940002 107.9560013 101.1549988  96.6880035 108.8970032
  99.5479965  96.5849991 107.4950027  99.3170013  96.1060028 106.5189972
  99.4840012  97.6859970 107.3610001  98.7789993  96.2770004 108.2340012
 101.0240021  94.6829987 108.2229996 101.2519989  93.8649979 107.3290024
 100.8259964  94.2789993 109.4980011 100.6689987  94.9420013 110.2259979
 100.9179993  92.8850021 109.9059982 101.7590027  92.4319992 109.4020004
 101.1650009  92.7819977 111.4339981 101.1309967  91.7129974 111.7350006
 100.3509979  93.3130035 111.9739990 102.5419998  93.3499985 111.8649979
 102.6070023  94.4280014 111.6009979 103.3430023  92.8130035 111.3130035
 102.8339996  93.2200012 113.3600006 103.9479980  93.6380005 113.7799988
 101.9810028  92.7099991 114.1350021  99.6880035  92.0630035 109.5360031
  99.7509995  90.8389969 109.4029999  98.5360031  92.7269974 109.3310013
  98.5029984  93.7180023 109.4369965  97.2910004  92.0660019 108.9789963
  97.5139999  91.2919998 108.2600021  96.5579987  91.4150009 110.1969986
  97.2149963  90.6070023 110.5849991  95.6090012  90.9329987 109.8769989
  96.3079987  92.3369980 111.2699966  95.6380005  92.9589996 110.9789963
  96.3470001  93.0299988 108.2839966  96.4329987  94.2490005 108.4449997
  95.4089966  92.4850006 107.4840012  95.3619995  91.4970016 107.3580017
  94.3720016  93.2490005 106.8119965  94.2409973  94.2050018 107.2959976
  94.6679993  93.4499969 105.3020020  93.8460007  94.0110016 104.8099976
  94.7399979  92.4560013 104.8099976  96.1210022  95.5410004 105.1330032
  95.4440002  96.1999969 105.4619980  95.9599991  94.1729965 105.0350037
  97.3710022  95.8300018 104.6890030  97.7699966  96.8440018 104.6640015
  98.0189972  94.7429962 104.3010025  97.1279984  93.7009964 104.5159988
  97.3960037  92.6829987 104.2600021  93.0650024  92.4850006 106.9420013
  93.0569992  91.2789993 107.1959991  91.9120026  93.1689987 106.7850037
  91.9160004  94.1529999 106.6220016  90.6009979  92.5370026 106.8160019
  90.5339966  91.9830017 107.7399979  89.4629974  93.5930023 106.7819977
  88.4710007  93.0989990 106.7020035  89.6009979  94.2490005 105.8960037
  89.4349976  94.4660034 108.0309982  90.0199966  94.0960007 109.0839996
  88.7340012  95.5139999 107.9960022  90.3980026  91.5100021 105.6920013
  90.8059998  91.7030029 104.5459976  89.7649994  90.3600006 106.0049973
  89.4430008  90.1880035 106.9329987  89.5110016  89.3180008 105.0309982
  90.4499969  89.1060028 104.5419998  89.0609970  88.0270004 105.7330017
  88.1429977  88.2040024 106.3339996  89.8570023  87.6679993 106.4189987
  88.8470001  87.2239990 104.9960022  88.5279999  89.7220001 103.9280014
  87.4550018  90.2789993 104.1699982  88.9140015  89.4700012 102.6569977
  89.8089981  89.0589981 102.5019989  88.1340027  89.7659988 101.4580002
  87.0940018  89.5479965 101.6539993  88.5299988  89.1569977 100.6579971
  88.2310028  91.2009964 100.9990005  87.7340012  91.5609970  99.9319992
  88.8820038  92.0609970 101.7979965  89.2639999  91.7229996 102.6549988
  89.1589966  93.4509964 101.5110016  88.2320023  93.8860016 101.1669998
  89.6090012  94.1500015 102.8229980  90.6490021  93.8529968 103.0739975
  88.9469986  93.8119965 103.6480026  89.5189972  95.6640015 102.7679977
  88.6979980  96.2099991 101.9830017  90.1790009  96.3379974 103.6039963
  90.1959991  93.6200027 100.3889999  91.0520020  92.7580032 100.1809998
  90.1340027  94.7409973  99.6409988  89.4570007  95.4390030  99.8590012
  91.1100006  95.0770035  98.6110001  91.8830032  94.3229980  98.5810013
  90.5169983  95.1780014  97.1999969  89.7399979  95.9710007  97.1790009
  91.6320038  95.5469971  96.1900024  92.4280014  94.7720032  96.1940002
  92.0920029  96.5319977  96.4179993  91.2229996  95.6179962  95.1600037
  89.8410034  93.8349991  96.8209991  89.0289993  93.6119995  97.5459976
  90.6070023  93.0370026  96.9229965  89.2519989  93.7939987  95.4049988
  90.0559998  93.8420029  94.6389999  88.5609970  94.6480026  95.2389984
  88.6910019  92.8489990  95.2429962  91.7799988  96.3820038  99.0090027
  91.1179962  97.3880005  99.2710037  93.1299973  96.3970032  99.0859985
  93.6689987  95.5839996  98.8799973  93.8619995  97.5859985  99.4970016
  93.2850037  98.4619980  99.2419968  94.1490021  97.6119995 101.0260010
  94.7929993  96.7500000 101.3020020  93.1809998  97.4950027 101.5579987
  94.7649994  98.8410034 101.4309998  94.9489975  98.7829971 102.3720016
  95.1800003  97.7030029  98.7490005  95.8899994  96.7200012  98.5279999
  95.5250015  98.9390030  98.3280029  94.9130020  99.7050018  98.5070038
  96.7269974  99.2389984  97.5670013  97.3089981  98.3410034  97.4209976
  96.3509979  99.8379974  96.1800003  97.2590027 100.0530014  95.5759964
  95.7900009 100.7870026  96.3150024  95.5019989  98.8710022  95.3820038
  95.9469986  97.5609970  95.1240005  96.9010010  97.2310028  95.5080032
  95.1600037  96.6679993  94.3850021  95.5049973  95.6600037  94.2070007
  93.9240036  97.0830002  93.8750000  93.3160019  96.3970032  93.3040009
  94.2630005  99.2750015  94.8560028  93.9079971 100.2789993  95.0360031
  93.4759979  98.3889999  94.1090012  92.5240021  98.7129974  93.7129974
  97.6470032 100.1979980  98.3249969  98.6159973 100.7210007  97.7740021
  97.3889999 100.4400024  99.6320038  96.6210022  99.9919968 100.0849991
  98.1910019 101.3219986 100.4850006  98.2109985 102.2929993 100.0120010
  97.5849991 101.5120010 101.9130020  96.5719986 101.9520035 101.7900009
  98.1910019 102.2369995 102.4980011  97.4420013 100.2910004 102.6449966
  98.3109970 100.0619965 102.9830017  99.6429977 100.8970032 100.6490021
 100.5589981 101.7249985 100.6549988  99.8759995  99.5770035 100.7910004
  99.1009979  98.9489975 100.7789993 101.1480026  99.0410004 101.2300034
 101.7190018  99.8369980 101.6829987 100.9660034  97.9489975 102.3219986
 101.9209976  97.4049988 102.4830017 100.1979980  97.2129974 102.0049973
 100.5520020  98.5530014 103.6630020  99.6729965  99.4570007 103.7089996
 101.0579987  98.0569992 104.7089996 102.0059967  98.5490036 100.0569992
 102.9919968  97.8330002 100.2429962 101.6839981  98.9769974  98.8130035
 100.8880005  99.5640030  98.6859970 102.5049973  98.7379990  97.6289978
 102.6050034  97.6660004  97.5360031 101.8330002  99.2229996  96.3369980
 101.4229965 100.2389984  96.5199966 102.8399963  99.3349991  95.1660004
 103.3659973  98.3720016  94.9970016 103.6009979 100.1220016  95.3580017
 102.3209991  99.6179962  94.2259979 100.6480026  98.2829971  95.9889984
 100.0019989  98.1669998  96.8850021 101.0540009  97.2809982  95.7340012
  99.7760010  98.7939987  94.8359985 100.3399963  98.8109970  93.8799973
  99.4240036  99.8259964  95.0479965  98.8880005  98.1419983  94.6959991
 103.9309998  99.2699966  97.7809982 104.1600037 100.4700012  97.9619980
 104.9020004  98.3339996  97.7799988 104.6330032  97.3750000  97.7310028
 106.3300018  98.5699997  97.8779984 106.7760010  97.6129990  97.6510010
 106.9219971  99.6050034  96.8710022 108.0309982  99.5800018  96.9410019
 106.5780029 100.6279984  97.1320038 106.5820007  99.3259964  95.4260025
 106.4700012  98.0179977  94.9199982 106.6019974  97.1709976  95.5759964
 106.1999969  97.7919998  93.5660019 106.1279984  96.7809982  93.1940002
 106.0380020  98.8759995  92.6959991 105.8320007  98.6999969  91.6500015
 106.4319992 100.4049988  94.5350037 106.5380020 101.4150009  94.9000015
 106.1559982 100.1839981  93.1790009 106.0439987 101.0210037  92.5059967
 106.7850037  98.8669968  99.3059998 107.8789978  99.3830032  99.5439987
 105.9580002  98.5279999 100.3160019 105.0490036  98.1689987 100.1169968
 106.3130035  98.6920013 101.7099991 107.0510025  99.4759979 101.7939987
 105.1060028  99.1129990 102.5800018 105.4570007  99.2350006 103.6269989
 104.3349991  98.3119965 102.5770035 104.4479980 100.4390030 102.1510010
 103.8460007 100.2689972 101.2330017 105.2310028 101.1800003 101.8830032
 103.5899963 101.0189972 103.2789993 104.2529984 101.2910004 104.1269989
 102.8369980 100.2799988 103.6269989 102.8799973 102.2289963 102.7559967
 102.6050034 102.2630005 101.7959976 102.3069992 103.1289978 103.5449982
 102.5159988 103.1689987 104.8440018 103.1800003 102.5380020 105.2440033
 102.0329971 103.8379974 105.4100037 101.4860001 104.0130005 103.0139999
 101.2519989 103.9339981 102.0449982 101.0029984 104.6529999 103.6110001
 106.9280014  97.4380035 102.3180008 106.6169968  96.3069992 101.9349976
 107.8010025  97.6240005 103.3300018 108.0719986  98.5540009 103.5660019
 108.4319992  96.5469971 104.0839996 107.7480011  95.7129974 104.1330032
 108.6770020  96.9520035 105.0550003 109.7190018  96.0550003 103.4639969
 110.2389984  96.6780014 102.5360031 110.2860031  94.9639969 103.9840012
 109.8239975  94.3199997 105.2200012 108.8450012  93.8300018 105.0350037
 109.7419968  95.0459976 106.0569992 111.3659973  94.1989975 103.3600006
 112.2659988  94.7659988 103.5479965 111.3629990  92.8639984 104.1179962
 112.3649979  92.3840027 104.1279984 110.6269989  92.1620026 103.6709976
 110.8870010  93.2590027 105.5169983 110.4850006  92.3990021 106.0940018
 111.7249985  93.7220001 106.0810013 111.3040009  94.0139999 101.8479996
 110.2470016  93.6729965 101.3109970 112.4449997  94.2009964 101.1579971
 113.2890015  94.4599991 101.6200027 112.5579987  93.9970016  99.7340012
 111.6019974  93.7149963  99.3180008 113.0530014  95.2689972  99.0220032
 114.0520020  95.5739975  99.4010010 112.3369980  96.0989990  99.2009964
 113.1210022  95.1019974  97.9260025 113.5339966  92.8619995  99.4800034
 114.5800018  92.7470016 100.1190033 113.2020035  91.9589996  98.5479965
 112.3379974  92.0319977  98.0559998 114.0830002  90.8550034  98.2200012
 115.0800018  91.0619965  98.5790024 113.6200027  89.5039978  98.8170013
 112.7190018  89.1309967  98.2850037 113.3489990  89.6760025  99.8809967
 114.6610031  88.5240021  98.7730026 114.2969971  87.7050018  99.1169968
 114.1750031  90.7310028  96.7190018 113.1689987  90.7109985  96.0070038
 115.4100037  90.6689987  96.2040024 116.1890030  90.6790009  96.8259964
 115.6979980  90.4079971  94.8109970 114.8619995  90.7649994  94.2279968
 116.9219971  91.1630020  94.2839966 117.6969986  91.1760025  95.0800018
 117.5360031  90.4869995  93.0329971 116.7730026  90.3880005  92.2320023
 117.9430008  89.4820023  93.2740021 118.3759995  91.0930023  92.6320038
 116.4879990  92.6200027  93.9860001 115.9469986  93.0199966  94.8700027
 115.7689972  92.6019974  93.1380005 117.6419983  93.5650024  93.6529999
 118.1890030  93.2330017  92.7450027 118.3570023  93.6019974  94.5029984
 117.2689972  94.5940018  93.4639969 115.7500000  88.9100037  94.5640030
 116.3570023  88.1380005  95.3130035 115.0640030  88.4769974  93.4990005
 114.6520004  89.1510010  92.8909988 114.8639984  87.1009979  93.1279984
 115.5630035  86.4739990  93.6610031 113.4079971  86.6309967  93.4359970
 113.1849976  86.8040009  94.5100021 113.3180008  85.5400009  93.2480011
 112.3590012  87.3349991  92.6060028 111.7590027  88.5250015  93.0510025
 112.0599976  88.9550018  93.9950027 110.7929993  89.1679993  92.2679977
 110.3529968  90.0979996  92.5979996 110.4039993  88.6179962  91.0459976
 109.6490021  89.1139984  90.4530029 111.9469986  86.7860031  91.3769989
 112.3880005  85.8629990  91.0309982 110.9779968  87.4229965  90.5970001
 110.6699982  86.9899979  89.6559982 115.1859970  86.9879990  91.6419983
 115.2750015  87.9789963  90.9120026 115.3929977  85.7590027  91.1399994
 115.3089981  84.9400024  91.7030029 115.6439972  85.5830002  89.7229996
 116.6259995  85.9729996  89.4980011 114.8479996  86.0579987  89.1689987
 115.6320038  84.1380005  89.3440018 115.4120026  83.2590027  90.1750031
 115.8789978  83.8460007  88.0589981 116.0279999  84.5749969  87.3960037
 115.9049988  82.4769974  87.5889969 114.9800034  81.9970016  87.8720016
 116.7750015  82.0009995  88.0159988 116.0189972  82.3519974  86.0950012
 116.0189972  83.3280029  85.3450012 116.1320038  81.0979996  85.6409988
 116.0940018  80.3570023  86.3069992 116.3420029  80.7119980  84.2620010
 116.3040009  81.5830002  83.6240005 117.6800003  79.9810028  84.0449982
 117.6460037  78.9909973  84.5490036 117.8840027  79.7440033  82.5289993
 117.8700027  80.7109985  81.9810028 117.0920029  79.0889969  82.1080017
 118.8560028  79.2429962  82.3310013 118.8659973  80.7500000  84.6910019
 118.6809998  80.8619995  85.7809982 118.9160004  81.7710037  84.2570038
 120.2269974  80.0589981  84.5319977 120.5410004  80.0309982  83.4670029
 120.1819992  79.0169983  84.9150009 121.0070038  80.6060028  85.1019974
 115.2119980  79.7770004  83.8590012 114.9430008  78.7900009  84.5459976
 114.5429993  80.0459976  82.7190018 114.7089996  80.9010010  82.2340012
 113.7799988  79.0419998  82.0019989 113.6689987  78.1569977  82.6110001
 112.3539963  79.4990005  81.5839996 112.4499969  80.4319992  80.9879990
 111.7809982  79.7480011  82.5019989 111.5670013  78.4479980  80.7529984
 111.3700027  77.5469971  81.3730011 112.1740036  78.1320038  79.8769989
 110.2269974  78.9670029  80.2190018 110.0800018  79.0879974  78.9700012
 109.2900009  79.2119980  81.0270004 114.5930023  78.6419983  80.7779999
 114.8860016  79.4479980  79.8899994 115.0159988  77.3679962  80.7340012
 114.7860031  76.7450027  81.4779968 115.8860016  76.8180008  79.7200012
 116.2659988  77.6080017  79.0889969 117.0999985  76.1169968  80.4169998
 116.6949997  75.4830017  81.2340012 117.7480011  76.8929977  80.8779984
 117.9850006  75.2369995  79.5559998 118.6039963  74.1100006  80.1299973
 118.4229965  73.8730011  81.1679993 119.4629974  73.3000031  79.3769989
 119.9339981  72.4410019  79.8320007 119.7259979  73.6119995  78.0390015
 120.6149979  72.8010025  77.2939987 120.7959976  73.2300034  76.4550018
 118.2519989  75.5329971  78.2080002 117.8109970  76.4029999  77.7450027
 119.1200027  74.7300034  77.4530029 119.3160019  74.9869995  76.4229965
 115.1090012  75.8639984  78.8249969 114.6669998  74.7990036  79.2580032
 114.9319992  76.2149963  77.5350037 115.2549973  77.0879974  77.1780014
 114.4570007  75.2760010  76.5429993 113.6729965  74.6740036  76.9769974
 113.8769989  76.0130005  75.3079987 114.6289978  76.7470016  74.9479980
 112.9909973  76.5960007  75.6389999 113.4950027  75.1269989  74.1050034
 114.3909988  74.6149979  73.6920013 113.0670013  75.7600021  73.2979965
 112.4349976  74.1070023  74.5120010 111.2880020  74.4690018  74.7870026
 112.8079987  72.8130035  74.5510025 112.0869980  72.1320038  74.6869965
 113.7539978  72.5510025  74.3619995 115.5719986  74.3199997  76.1320038
 116.5589981  74.7040024  75.4980011 115.4489975  73.0319977  76.5029984
 114.6439972  72.7139969  76.9970016 116.4720001  72.0309982  76.2330017
 117.4189987  72.4980011  76.4609985 116.3619995  70.7929993  77.1360016
 117.3089981  70.2139969  77.0879974 115.3119965  69.9069977  76.7760010
 114.4980011  70.4100037  76.8600006 116.1660004  71.2089996  78.6009979
 115.1920013  71.7200012  78.7610016 116.9800034  71.8949966  78.9189987
 116.1920013  70.3109970  79.2539978 116.4810028  71.6330032  74.7470016
 115.5550003  72.0070038  74.0149994 117.4710007  70.8919983  74.2229996
 118.7949982  70.7389984  74.8330002 118.7949982  69.8190002  75.4570007
 119.0780029  71.6179962  75.4509964 117.4990005  70.5360031  72.8069992
 117.3820038  71.4430008  72.2310028 118.8730011  69.8759995  72.6070023
 119.2509995  70.0130005  71.5709991 118.8320007  68.7900009  72.8369980
 119.7509995  70.5690002  73.6510010 120.6539993  69.9759979  73.9130020
 120.0619965  71.5670013  73.2760010 116.3679962  69.5960007  72.4339981
 115.8870010  69.6490021  71.2990036 115.9260025  68.7369995  73.3759995
 116.3619995  68.7129974  74.2720032 114.6890030  68.0000000  73.2460022
 114.6589966  67.5770035  72.2519989 114.6340027  66.8399963  74.2760010
 114.6890030  67.2839966  75.2929993 115.5439987  66.2160034  74.1460037
 113.4449997  65.9300003  74.2190018 112.8069992  65.4570007  73.0979996
 113.0630035  65.7350006  72.0859985 111.8239975  64.5680008  73.4690018
 111.2030029  64.0879974  72.8880005 111.8239975  64.4280014  74.8300018
 112.8310013  65.2799988  75.3460007 113.0490036  65.3280029  76.7239990
 113.8099976  65.9680023  77.1460037 112.2829971  64.5059967  77.5540009
 112.4509964  64.5250015  78.6200027 111.0640030  63.6160011  75.6559982
 110.2949982  62.9679985  75.2610016 111.3160019  63.6549988  77.0279999
 110.7369995  63.0309982  77.6930008 113.5009995  68.9589996  73.3980026
 113.1930008  69.4449997  74.4889984 112.8069992  69.2740021  72.2799988
 113.0559998  68.8560028  71.4100037 111.8560028  70.3799973  72.2279968
 112.4270020  71.2500000  72.5130005 111.3290024  70.6449966  70.7929993
 110.6050034  71.4869995  70.8030014 110.8219986  69.7509995  70.3710022
 112.5019989  71.0690002  69.9140015 113.2089996  72.0329971  70.2170029
 112.7310028  70.3440018  68.7939987 113.5110016  70.5940018  68.2210007
 112.1360016  69.5770035  68.5530014 110.7060013  70.3560028  73.2470016
 110.3980026  71.4219971  73.7799988 110.0690002  69.2509995  73.6080017
 109.9400024  68.0709991  72.7429962 110.8030014  67.3980026  72.9359970
 109.8929977  68.3320007  71.6640015 109.0920029  69.2300034  74.6940002
 108.3069992  69.9280014  74.4420013 108.6279984  67.7750015  74.6660004
 107.6389999  67.6240005  75.1490021 109.3799973  67.1309967  75.1709976
 108.6439972  67.4059982  73.1900024 108.6490021  66.3079987  73.0250015
 107.7720032  67.8610001  72.6729965 109.5859985  69.6070023  76.0999985
 108.7549973  69.9820023  76.9329987 110.8909988  69.4789963  76.4240036
 111.5709991  69.2519989  75.7300034 111.3820038  69.6330032  77.7839966
 110.5530014  69.5319977  78.4690018 112.3899994  68.5100021  78.1500015
 113.1790009  68.4850006  77.3669968 111.8560028  67.5370026  78.1009979
 113.0839996  68.6169968  79.5309982 113.6240005  69.5859985  79.5869980
 112.0830002  68.5619965  80.6979980 111.5609970  67.5810013  80.7129974
 111.3219986  69.3679962  80.6129990 112.6169968  68.6900024  81.6640015
 114.1480026  67.5189972  79.6940002 114.9000015  67.5869980  78.8789978
 113.6780014  66.5130005  79.6559982 114.6719971  67.6259995  80.6679993
 112.0009995  71.0009995  78.0640030 112.9369965  71.4540024  77.3939972
 111.4960022  71.6790009  79.1149979 110.7160034  71.3229980  79.6240005
 112.0599976  72.8949966  79.6549988 112.9359970  73.1600037  79.0820007
 111.0709991  74.0889969  79.6039963 111.5380020  74.9660034  80.1029968
 110.1480026  73.8300018  80.1660004 110.7060013  74.5059967  78.1669998
 110.1589966  73.6890030  77.6500015 111.6559982  74.6520004  77.6090012
 109.9229965  75.8219986  78.0650024 109.8830032  76.1559982  77.0059967
 110.4169998  76.6009979  78.6829987 108.5289993  75.5849991  78.5650024
 108.2460022  74.6569977  78.8079987 107.5630035  76.4800034  78.4059982
 107.8030014  77.7369995  78.1179962 107.0230026  78.3519974  78.0000000
 108.6959991  78.1090012  78.3700027 106.3000031  76.1119995  78.5019989
 106.0680008  75.1549988  78.6780014 105.5899963  76.7799988  78.2779999
 112.5210037  72.6839981  81.0930023 111.8750000  72.0049973  81.8919983
 113.6729965  73.2679977  81.4599991 114.1750031  73.8190002  80.7979965
 114.2519989  73.1470032  82.7850037 113.6159973  72.5380020  83.4110031
 115.6630020  72.5070038  82.7610016 116.1080017  72.5289993  83.7789993
 116.3140030  73.1080017  82.0910034 115.6859970  71.0390015  82.2770004
 115.2060013  70.9960022  81.2750015 117.1299973  70.5400009  82.1230011
 117.6549988  70.5599976  83.1019974 117.6900024  71.1829987  81.4089966
 117.1389999  69.4980011  81.7379990 114.8949966  70.1050034  83.2060013
 113.8219986  70.3939972  83.2330017 115.3000031  70.1470032  84.2399979
 114.9589996  69.0579987  82.8420029 114.3160019  74.5039978  83.4629974
 114.5419998  75.5370026  82.8300018 114.0719986  74.5240021  84.7860031
 113.8710022  73.6760025  85.2710037 114.0370026  75.7249985  85.5910034
 114.3150024  76.5619965  84.9690018 112.6190033  76.0289993  86.1350021
 112.6709976  76.8229980  86.9100037 112.2060013  75.1149979  86.6139984
 111.6699982  76.5289993  85.0360031 111.5839996  75.7630005  84.2369995
 112.1139984  77.4400024  84.5810013 110.2720032  76.8619995  85.5849991
 110.3919983  77.5390015  86.4580002 109.8059998  75.9219971  85.9499969
 109.3789978  77.5350037  84.5339966 109.3180008  76.9079971  83.6190033
 109.8010025  78.5240021  84.2529984 108.0009995  77.7500000  85.0410004
 108.0039978  78.3119965  85.9160004 107.5009995  76.8590012  85.2360001
 107.4810028  78.2740021  84.3079987 115.0350037  75.7259979  86.7369995
 115.1999969  74.7440033  87.4629974 115.7089996  76.8750000  86.9189987
 115.5739975  77.6240005  86.2740021 116.5299988  77.1800003  88.0729980
 116.3899994  76.4319992  88.8389969 118.0339966  77.2710037  87.6999969
 118.1370010  77.9410019  86.8199997 118.3710022  76.2590027  87.3870010
 118.9860001  77.7880020  88.8059998 118.6770020  78.8160019  89.0910034
 118.9530029  76.9140015  90.0709991 119.2829971  75.8809967  89.8310013
 117.9300003  76.8700027  90.5019989 119.6380005  77.3270035  90.8420029
 120.4229965  77.8820038  88.2689972 120.4649963  78.5479965  87.3809967
 120.7919998  76.8769989  87.9720001 121.1029968  78.2900009  89.0479965
 116.0410004  78.5029984  88.6330032 115.9520035  79.4940033  87.9130020
 115.6709976  78.5400009  89.9199982 115.7070007  77.7080002  90.4680023
 115.1050034  79.6900024  90.5930023 115.1770020  80.5559998  89.9509964
 113.5999985  79.4550018  90.8899994 113.4749985  78.3789978  91.1380005
 113.0370026  79.6330032  89.9479980 112.9789963  80.2819977  92.0419998
 113.0540009  81.3700027  91.8270035 113.5000000  80.0739975  93.0009995
 111.5090027  79.9290009  92.2310028 111.1699982  79.2160034  93.2129974
 110.6780014  80.3560028  91.3899994 115.8629990  80.0579987  91.8600006
 116.2610016  79.1940002  92.6419983 116.0739975  81.3679962  92.0910034
 115.7850037  82.0360031  91.4100037 116.5770035  81.9219971  93.3300018
 116.9820023  81.1330032  93.9459991 117.7089996  82.9469986  93.0220032
 117.3270035  83.6959991  92.2959976 118.5599976  82.4150009  92.5459976
 118.2429962  83.6689987  94.2340012 118.2519989  85.0749969  94.2770004
 117.8450012  85.6399994  93.4509964 118.7880020  85.7529984  95.3789978
 118.7900009  86.8330002  95.3990021 119.3239975  85.0339966  96.4520035
 119.8600006  85.7389984  97.5579987 120.2210007  85.1050034  98.1829987
 118.7969971  82.9540024  95.3099976 118.8199997  81.8740005  95.2789993
 119.3349991  83.6320038  96.4160004 119.7590027  83.0690002  97.2340012
 115.4100037  82.5500031  94.1039963 114.8720016  83.5960007  93.7360001
 114.9779968  81.8710022  95.1809998 115.4449997  81.0279999  95.4380035
 113.8550034  82.1910019  96.0319977 113.0009995  82.3059998  95.3799973
 113.6210022  80.9639969  96.9520035 114.3440018  80.9599991  97.7949982
 113.8150024  80.0550003  96.3430023 112.2070007  80.8460007  97.5070038
 111.5039978  81.8759995  97.6760025 111.8270035  79.6949997  97.8679962
 113.9970016  83.5000000  96.8270035 115.0500031  83.8050003  97.3960037
 112.9039993  84.2890015  96.9049988 112.0680008  83.9599991  96.4739990
 112.8290024  85.5429993  97.6409988 112.1299973  86.1729965  97.1110001
 113.8130035  85.9850006  97.6999969 112.3040009  85.3990021  99.0530014
 112.3929977  86.3290024  99.8560028 111.7269974  84.2350006  99.4029999
 111.7040024  83.4749985  98.7580032 111.1080017  83.9860001 100.6920013
 110.9339981  84.9339981 101.1790009 109.7279968  83.3000031 100.4639969
 109.8899994  82.2829971 100.0469971 109.1689987  83.8949966  99.7109985
 108.8529968  83.2009964 101.7109985 109.1669998  83.6809998 102.8030014
 107.6809998  82.5510025 101.5569992 107.0609970  82.4820023 102.3379974
 107.4420013  82.1460037 100.6740036 112.0400009  83.1689987 101.6050034
 112.8249969  82.3359985 101.1510010 111.9919968  83.4169998 102.9359970
 111.3690033  84.1070023 103.2959976 112.7310028  82.6460037 103.9270020
 113.4120026  81.9779968 103.4209976 113.5940018  83.5849991 104.8270035
 114.2819977  84.1569977 104.1679993 114.2139969  82.9670029 105.5110016
 112.7839966  84.5770035 105.6640015 111.5530014  84.6139984 105.6569977
 113.5049973  85.4199982 106.4390030 113.0120010  86.1039963 106.9779968
 114.5029984  85.3619995 106.4629974 111.8229980  81.7419968 104.7740021
 112.3089981  80.9410019 105.5709991 110.4830017  81.8369980 104.6090012
 110.1179962  82.5149994 103.9739990 109.4909973  80.9140015 105.1549988
 108.5390015  81.2839966 104.8040009 109.6350021  79.4639969 104.6129990
 108.7949982  78.8359985 104.9800034 110.5899963  79.0059967 104.9459991
 109.5839996  79.4580002 103.1100006 108.3570023  79.3330002 102.4349976
 107.4400024  79.2549973 102.9990005 108.3140030  79.3300018 101.0329971
 107.3659973  79.2539978 100.5230026 109.4990005  79.4599991 100.2969971
 109.4589996  79.4860001  98.8970032 110.3590012  79.6250000  98.5940018
 110.7679977  79.5500031 102.3580017 111.7190018  79.6289978 102.8639984
 110.7239990  79.5699997 100.9609985 111.6389999  79.6750031 100.3970032
 109.3610001  80.9130020 106.6790009 108.8150024  79.9869995 107.2799988
 109.8479996  81.9749985 107.3550034 110.2890015  82.7190018 106.8590012
 109.8550034  82.0459976 108.8079987 110.0790024  81.0680008 109.2080002
 110.9469986  83.0469971 109.2710037 110.9319992  83.1080017 110.3799973
 110.7109985  84.0599976 108.8820038 112.3909988  82.6800003 108.8369980
 113.1029968  83.4000015 109.2919998 112.4929962  82.7610016 107.7330017
 112.8050003  81.2750015 109.2809982 113.1819992  81.0619965 110.4380035
 112.7539978  80.2900009 108.3550034 112.4960022  80.5049973 107.4130020
 113.0240021  79.3629990 108.6149979 108.5100021  82.4609985 109.3960037
 108.1620026  82.0869980 110.5159988 107.7089996  83.2239990 108.6200027
 108.0270004  83.5000000 107.7160034 106.4420013  83.7860031 109.0709991
 106.2750015  83.5579987 110.1129990 106.4339981  85.3270035 108.8639984
 105.4530029  85.7549973 109.1600037 106.6169968  85.5630035 107.7939987
 107.4950027  86.0080032 109.7289963 107.9550018  85.5029984 110.7570038
 107.9270020  87.2160034 109.2949982 108.6240005  87.6930008 109.8310013
 107.5400009  87.6200027 108.4660034 105.2710037  83.1750031 108.3040009
 104.1480026  83.6819992 108.3399963 105.5080032  82.0630035 107.5770035
 106.4089966  81.6389999 107.6070023 104.5130005  81.3820038 106.7689972
 104.1050034  82.1309967 106.1060028 105.2139969  80.3219986 105.8779984
 105.6159973  79.5000000 106.5080032 106.0680008  80.7919998 105.3450012
 104.2630005  79.7399979 104.8440018 103.6009979  78.7089996 105.1320038
 104.0940018  80.3750000 103.7679977 103.3150024  80.8330002 107.5770035
 103.4410019  80.4100037 108.7300034 102.0989990  80.8639984 106.9860001
 102.0230026  81.1699982 106.0400009 100.8509979  80.4660034 107.6210022
 100.7720032  81.0500031 108.5260010  99.6429977  80.8470001 106.7200012
  99.7320023  80.3349991 105.7379990  99.6510010  81.9420013 106.5350037
  98.3109970  80.4869995 107.3359985  97.5479965  79.4290009 106.8180008
  97.9309998  78.8690033 105.9779968  96.3050003  79.1039963 107.3740005
  95.7300034  78.2829971 106.9700012  95.8099976  79.8399963 108.4560013
  94.8479996  79.5930023 108.8809967  97.8030014  81.2229996 108.4199982
  98.3759995  82.0459976 108.8219986  96.5589981  80.9020004 108.9800034
  96.1750031  81.4739990 109.8119965 100.8099976  79.0009995 108.0820007
 100.2710037  78.6770020 109.1439972 101.4260025  78.0780029 107.3190002
 101.8889999  78.3450012 106.4779968 101.5169983  76.6709976 107.6529999
 100.5370026  76.3249969 107.9499969 101.9720001  75.8779984 106.4130020
 102.9769974  76.2129974 106.0790024 101.2559967  76.0360031 105.5780029
 102.0149994  74.7890015 106.6269989 102.4729996  76.4010010 108.8229980
 102.4789963  75.3180008 109.4140015 103.2779999  77.4179993 109.1930008
 103.2289963  78.2630005 108.6650009 104.2580032  77.4069977 110.2649994
 104.3430023  76.4169998 110.6890030 103.9680023  78.1630020 110.9810028
 105.6090012  77.7860031 109.7269974 105.7969971  77.9499969 108.5240021
 106.6159973  77.9319992 110.6110001 106.4530029  77.8570023 111.5920029
 107.9990005  78.0640030 110.1819992 108.0380020  78.8750000 109.4700012
 108.9430008  78.4660034 111.3460007 108.6669998  77.8730011 112.2429962
 108.7580032  79.5360031 111.5849991 110.4449997  78.2440033 111.0869980
 110.7279968  78.6959991 110.1119995 110.6510010  77.1539993 111.0299988
 111.3259964  78.8440018 112.1979980 110.9079971  78.5490036 113.1849976
 111.2649994  79.9499969 112.1210022 112.7890015  78.3759995 112.1210022
 113.1890030  78.5199966 111.0950012 112.8590012  77.2969971 112.3779984
 113.6409988  79.1429977 113.0640030 113.2819977  79.0640030 114.0370026
 113.6559982  80.1470032 112.7939987 114.6179962  78.7870026 113.0459976
 108.5090027  76.8300018 109.4420013 108.6230011  75.7409973 110.0110016
 108.8010025  76.9660034 108.1350021 108.6940002  77.8470001 107.6819992
 109.2070007  75.8389969 107.3160019 108.7870026  74.9469986 107.7570038
 108.6800003  75.9169998 105.8570023 108.9290009  74.9710007 105.3310013
 109.1989975  76.7379990 105.3180008 107.1549988  76.1439972 105.7350006
 106.9160004  77.1470032 106.1490021 106.7200012  76.1460037 104.2630005
 106.9110031  75.1539993 103.8010025 107.2799988  76.9169998 103.6920013
 105.6340027  76.3690033 104.1839981 106.3410034  75.1080017 106.5270004
 106.5350037  75.2009964 107.6169968 106.6019974  74.0759964 106.2060013
 105.2539978  75.2669983 106.3590012 110.7279968  75.7239990 107.3079987
 111.4110031  76.7539978 107.2519989 111.3320007  74.5360031 107.3899994
 110.6350021  73.2429962 107.4130020 109.7669983  73.2269974 106.7190018
 110.2939987  73.0459976 108.4509964 112.7610016  74.3720016 107.1529999
 113.3010025  74.9879990 107.8570023 113.0009995  72.8730011 107.3960037
 113.1559982  72.7099991 108.4840012 113.8789978  72.4680023 106.8489990
 111.6829987  72.2139969 106.9820023 111.6529999  72.0960007 105.8779984
 111.5279999  71.2229996 107.4599991 113.1800003  74.8239975 105.7580032
 112.5400009  74.4710007 104.7679977 114.2730026  75.5950012 105.6500015
 114.7590027  75.9059982 106.4629974 114.8359985  75.9800034 104.3750000
 114.4089966  75.3850021 103.5800018 114.5719986  77.4749985 104.0660019
 114.9680023  78.0820007 104.9079971 113.4710007  77.6240005 104.0459976
 115.1819992  77.9720001 102.7330017 114.7789993  77.3669968 101.8929977
 116.2880020  77.8659973 102.7429962 114.8779984  79.4589996 102.5199966
 115.1589966  80.2949982 103.3830032 114.2880020  79.8079987 101.3539963
 113.9909973  80.7559967 101.2389984 114.1299973  79.1220016 100.6429977
 116.3209991  75.6809998 104.3980026 117.0699997  76.1999969 105.2269974
 116.7839966  74.8099976 103.4850006 116.1760025  74.3960037 102.8119965
 118.1800003  74.4530029 103.3789978 118.6890030  74.6159973 104.3170013
 118.2730026  72.9619980 103.0049973 117.7590027  72.7600021 102.0410004
 117.7890015  72.3440018 103.7910004 119.3330002  72.6399994 102.9179993
 118.8789978  75.2939987 102.3160019 120.0879974  75.5210037 102.3720016
 118.1179962  75.8300018 101.3410034 117.1409988  75.6370010 101.2959976
 118.6819992  76.6409988 100.2760010 119.4550018  77.2730026 100.6869965
 119.2819977  75.7689972  99.1320038 118.4830017  75.1520004  98.6669998
 120.0210037  75.0749969  99.5869980 119.9390030  76.5530014  98.1250000
 120.5739975  75.9830017  97.6849976 117.6200027  77.5569992  99.6999969
 116.4199982  77.3000031  99.8030014 118.0510025  78.6589966  99.0530014
 119.0289993  78.8489990  99.0120010 117.1729965  79.5199966  98.2779999
 116.1569977  79.4449997  98.6360016 117.6240005  81.0019989  98.3450012
 117.1190033  81.6060028  97.5619965 118.7170029  81.0619965  98.1569977
 116.2730026  82.5299988  99.8570023 115.6399994  82.8479996  99.1520004
 117.3190002  81.6490021  99.6679993 116.3929977  83.0299988 101.1110001
 115.6920013  83.7549973 101.5240021 117.4580002  82.5510025 101.7350006
 118.0439987  81.6839981 100.8209991 118.9629974  81.1650009 101.0619965
 117.1679993  79.1009979  96.8160019 116.4290009  79.6549988  96.0049973
 117.9700012  78.0889969  96.4319992 118.5759964  77.6330032  97.0790024
 117.9609985  77.5759964  95.0780029 117.6419983  78.3710022  94.4199982
 119.3570023  77.1429977  94.5749969 119.2919998  76.6600037  93.5759964
 119.8339996  76.4329987  95.2839966 120.2099991  78.3769989  94.4280014
 119.9879990  79.2529984  93.3499985 119.2099991  79.0329971  92.6350021
 120.7559967  80.4150009  93.2050018 120.5749969  81.0820007  92.3750000
 121.7559967  80.7119980  94.1389999 122.3460007  81.6100006  94.0299988
 121.2249985  78.6800003  95.3519974 121.4049988  78.0159988  96.1849976
 121.9919968  79.8440018  95.2119980 122.7639999  80.0719986  95.9319992
 116.9339981  76.4700012  94.8929977 116.9690018  75.4150009  95.5319977
 115.9830017  76.7249985  93.9840012 116.0199966  77.5920029  93.4919968
 114.8539963  75.8799973  93.6760025 114.8440018  75.0110016  94.3170013
 113.5210037  76.6669998  93.7990036 112.6689987  76.0400009  93.4589996
 113.5719986  77.5739975  93.1600037 113.2509995  77.1060028  95.2409973
 113.8249969  76.6050034  96.2119980 112.3389969  78.0889969  95.4010010
 111.9049988  78.4929962  94.5960007 112.2139969  78.5029984  96.3030014
 115.0230026  75.4059982  92.2369995 115.3539963  76.1890030  91.3470001
 114.8339996  74.1009979  91.9710007 114.5240021  73.4739990  92.6819992
 115.0759964  73.5169983  90.6579971 115.2060013  74.3059998  89.9319992
 116.3219986  72.6279984  90.5899963 116.4029999  72.1819992  89.5759964
 117.5759964  73.4990005  90.8000031 117.5820007  73.9499969  91.8150024
 117.6050034  74.3160019  90.0479965 118.4960022  72.8850021  90.6890030
 116.2590027  71.4840012  91.6230011 115.3899994  70.8199997  91.4319992
 116.1849976  71.8830032  92.6569977 117.1809998  70.8669968  91.5599976
 113.8600006  72.7369995  90.1989975 113.0889969  72.2119980  91.0009995
 113.6200027  72.6460037  88.8779984 114.2009964  73.1070023  88.2109985
 112.4779968  71.8860016  88.3949966 111.5879974  72.4550018  88.6200027
 112.4960022  70.9100037  88.8560028 112.4779968  71.6500015  86.9150009
 113.2649994  72.2180023  86.1610031 111.5510025  70.7900009  86.4700012
 110.9499969  70.3310013  87.1190033 111.3229980  70.4700012  85.0830002
 111.9570007  71.0739975  84.4520035 111.6179962  68.9810028  84.8160019
 110.9700012  68.3330002  85.4430008 112.6770020  68.7580032  85.0670013
 111.4530029  68.7279968  83.7470016 109.8799973  70.7839966  84.7119980
 108.9380035  70.4869995  85.4530029 109.6869965  71.4120026  83.5380020
 110.4649963  71.6460037  82.9599991 108.3870010  71.7060013  82.9700012
 107.6060028  71.2959976  83.5940018 108.1289978  73.1979980  82.7850037
 108.8740005  73.6350021  82.0859985 106.7119980  73.4250031  82.2190018
 105.9499969  72.9489975  82.8740005 106.6070023  73.0029984  81.1969986
 106.4909973  74.5120010  82.1600037 108.2779999  73.9020004  84.1470032
 109.3359985  73.8919983  84.4869995 107.6559982  73.4010010  84.9189987
 107.9479980  74.9589996  84.0550003 108.3339996  70.9980011  81.6320038
 109.1279984  71.2620010  80.7269974 107.4120026  70.0350037  81.4840012
 106.7659988  69.8379974  82.2180023 107.4089966  69.1620026  80.3320007
 108.1969986  69.4430008  79.6490021 107.6809998  67.7009964  80.7730026
 106.8659973  67.3180008  81.4240036 108.6370010  67.6480026  81.3369980
 107.7990036  66.8349991  79.5569992 106.7009964  66.1060028  79.0709991
 105.7639999  66.1190033  79.6070023 106.7990036  65.4250031  77.8519974
 105.9400024  64.8980026  77.4649963 107.9980011  65.4319992  77.1330032
 108.0749969  64.7590027  75.8929977 107.2630005  64.2600021  75.7770004
 108.9980011  66.8430023  78.8310013 109.8320007  67.4309998  79.1829987
 109.1009979  66.1389999  77.6299973 110.0210037  66.1689987  77.0670013
 106.1070023  69.2880020  79.5410004 105.0189972  68.9700012  80.0270004
 106.2170029  69.7460022  78.2789993 107.1149979  69.9420013  77.8939972
 105.1029968  69.9359970  77.3750000 104.2099991  70.1380005  77.9479980
 105.3990021  71.1470032  76.4550018 106.3529968  70.9489975  75.9209976
 105.5699997  72.0289993  77.1080017 104.3209991  71.5049973  75.4079971
 104.2220001  70.6689987  74.6829987 104.6760025  72.3840027  74.8280029
 102.9300003  71.7900009  75.9860001 102.5930023  70.9169998  76.5839996
 102.1770020  71.9729996  75.1900024 103.0120010  72.9660034  76.8970032
 103.3479996  72.8280029  77.8280029 102.9759979  74.2350006  76.5429993
 102.8290024  74.6589966  75.3079987 102.8389969  73.9960022  74.5589981
 103.0540009  75.6179962  75.1370010 103.1149979  75.1330032  77.4960022
 103.1019974  76.1050034  77.2620010 103.0950012  74.7990036  78.4380035
 104.8570023  68.6839981  76.5329971 105.3949966  68.5189972  75.4359970
 104.0220032  67.7480011  77.0299988 103.5830002  67.8880005  77.9140015
 103.7429962  66.4909973  76.3550034 104.6900024  66.0090027  76.1640015
 102.9110031  65.5920029  77.2789993 101.9580002  66.0950012  77.5479965
 103.4720001  65.3830032  78.2160034 102.6809998  64.6200027  76.7919998
 103.0739975  66.6279984  74.9830017 103.4489975  65.9629974  74.0120010
 102.1029968  67.5500031  74.8820038 101.8030014  68.0559998  75.6859970
 101.5579987  68.0289993  73.6389999 102.3720016  68.1859970  72.9469986
 100.4869995  67.1090012  73.0110016  99.5770035  67.0660019  73.6480026
 100.8880005  66.0790024  72.9010010 100.1869965  67.4749985  72.0049973
 100.9729996  69.3830032  73.9789963 100.8779984  69.7350006  75.1559982
 100.6169968  70.1819992  72.9530029 100.6409988  69.8040009  72.0299988
 100.2210007  71.5910034  73.0090027 101.1480026  72.1449966  73.0139999
  99.4629974  72.0360031  71.7229996 100.1699982  71.9489975  70.8700027
  99.1539993  73.1019974  71.7870026  98.3259964  71.2050018  71.4550018
  97.9479980  71.4889984  70.6190033  99.4570007  72.1080017  74.2259979
  99.7639999  73.1859970  74.7399979  98.4479980  71.3669968  74.7109985
  98.2399979  70.4879990  74.2890015  97.5039978  71.8410034  75.6979980
  97.5019989  72.9209976  75.6780014  96.0699997  71.4229965  75.2750015
  95.8069992  72.0559998  74.4000015  95.3369980  71.6780014  76.0699997
  95.8740005  69.9929962  74.8769989  95.9250031  69.4820023  73.6029968
  96.1930008  70.0589981  72.7300034  95.5640030  68.1559982  73.6250000
  95.5159988  67.5469971  72.8639984  95.2630005  67.7870026  74.9100037
  95.4749985  68.9150009  75.7409973  95.2580032  68.8099976  77.1159973
  95.4130020  69.6549988  77.7710037  94.8199997  67.5889969  77.6279984
  94.6470032  67.4869995  78.6890030  94.7829971  66.5869980  75.4169998
  94.5910034  65.7379990  74.7779999  94.5670013  66.5039978  76.7929993
  94.2009964  65.5830002  77.2220001  97.7929993  71.4670029  77.1620026
  97.0309982  71.8489990  78.0540009  98.9079971  70.7679977  77.4850006
  99.5329971  70.4240036  76.7880020  99.2409973  70.5510025  78.8880005
  98.9540024  71.4349976  79.4369965  98.4680023  69.3669968  79.5039978
  98.7549973  68.4120026  79.0149994  97.3750000  69.5130005  79.3659973
  98.6699982  69.2860031  80.5930023 100.7320023  70.3830032  79.1880035
 101.5049973  69.7760010  78.4440002 101.1309967  70.9229965  80.3509979
 100.4550018  71.3929977  80.9130020 102.4449997  70.8850021  80.9410019
 103.1470032  70.4489975  80.2460022 102.9029999  72.3010025  81.3850021
 103.7959976  72.2259979  82.0410004 102.0849991  72.8000031  81.9479980
 103.2969971  73.1569977  80.2020035 104.1179962  72.6999969  79.3669968
 102.8580017  74.3369980  80.1159973 102.4169998  70.0179977  82.1989975
 101.5469971  70.1490021  83.0650024 103.4010010  69.1159973  82.3349991
 104.0429993  68.9899979  81.5830002 103.6760025  68.3880005  83.5589981
 102.7809982  68.3470001  84.1620026 104.1719971  66.9430008  83.2979965
 104.4420013  66.4609985  84.2610016 105.0879974  66.9889984  82.6709976
 103.1510010  66.0279999  82.5879974 102.8590012  66.5000000  81.6259995
 103.7910004  64.6709976  82.2549973 104.1190033  64.1569977  83.1849976
 104.6729965  64.8020020  81.5920029 103.0579987  64.0149994  81.7399979
 101.8750000  65.8379974  83.4270020 101.3550034  66.8069992  83.5849991
 102.1240005  65.3990021  84.4160004 101.1740036  65.1480026  82.9100037
 104.7310028  69.1210022  84.3769989 105.6849976  69.6800003  83.8300018
 104.5709991  69.1529999  85.7170029 103.7919998  68.7089996  86.1549988
 105.4449997  69.8929977  86.6080017 106.2890015  70.2799988  86.0559998
 104.6940002  71.0729980  87.2809982 105.3750000  71.6679993  87.9270020
 103.8629990  70.6910019  87.9120026 104.0790024  71.9739990  86.2160034
 102.8809967  71.9250031  85.9290009 104.9100037  72.8679962  85.6289978
 104.5250015  73.4899979  84.9479980 105.8669968  72.9219971  85.9140015
 106.0130005  68.9929962  87.7040024 105.2819977  68.3570023  88.4649963
 107.3539963  68.9420013  87.8259964 107.9489975  69.4120026  87.1790009
 108.0110016  68.2710037  88.9319992 107.3410034  68.2289963  89.7779999
 108.4749985  66.8369980  88.5640030 109.1890030  66.8970032  87.7149963
 107.5879974  66.2699966  88.2080002 109.1259995  66.0309982  89.7129974
 109.9869995  66.6070023  90.1149979 108.1419983  65.7659988  90.8619995
 107.2559967  65.2080002  90.4889984 107.7959976  66.7200012  91.3150024
 108.6269989  65.1589966  91.6559982 109.6780014  64.6959991  89.1959991
 110.4079971  64.8619995  88.3759995 108.8489990  64.0660019  88.8089981
 110.1849976  64.1389999  90.0130005 109.1959991  69.1179962  89.3560028
 109.9929962  69.5670013  88.5289993 109.3219986  69.4020004  90.6610031
 108.6559982  69.0780029  91.3280029 110.2760010  70.3850021  91.1360016
 111.1819992  70.2799988  90.5569992 109.7720032  71.8499985  90.9629974
 109.7320023  72.0569992  89.8720016 110.4759979  72.5810013  91.4130020
 108.4540024  72.0459976  91.4779968 108.5559998  72.3280029  92.3899994
 110.7060013  70.1320038  92.5650024 110.0459976  69.4420013  93.3410034
 111.8880005  70.6600037  92.9270020 112.4010010  71.2160034  92.2770004
 112.5019989  70.4970016  94.2229996 111.8069992  70.0210037  94.8990021
 113.7880020  69.6399994  94.0869980 114.5650024  70.1839981  93.5100021
 113.5400009  68.7129974  93.5260010 114.3519974  69.2109985  95.4150009
 115.6250000  69.6340027  95.8369980 116.1829987  70.3339996  95.2320023
 116.1959991  69.1179962  97.0100021 117.1839981  69.4349976  97.3069992
 115.4950027  68.1729965  97.7710037 116.0800018  67.5940018  98.9209976
 116.9739990  67.9319992  99.0179977 113.6529999  68.2779999  96.1979980
 112.6859970  67.9240036  95.8700027 114.2160034  67.7669983  97.3750000
 113.6770020  67.0370026  97.9599991 112.8040009  71.8960037  94.7509995
 113.5749969  72.6610031  94.1650009 112.1559982  72.2770004  95.8629990
 111.5830002  71.6139984  96.3389969 112.1510010  73.6279984  96.3880005
 112.8619995  74.2259979  95.8369980 110.7559967  74.2949982  96.2080002
 110.6689987  75.1940002  96.8539963 109.9810028  73.5729980  96.5410004
 110.5159988  74.7500000  94.7399979 111.2900009  74.2990036  94.0830002
 110.6240005  75.8539963  94.6699982 109.1699982  74.3249969  94.1399994
 108.8580017  73.1849976  93.8570023 108.3450012  75.3830032  93.8649979
 107.5879974  75.0999985  93.3460007 112.6389999  73.6630020  97.8259964
 112.5849991  72.6669998  98.5459976 113.2300034  74.8010025  98.2450027
 113.3310013  75.5540009  97.5989990 113.7610016  75.0540009  99.5780029
 114.0920029  76.0820007  99.5690002 112.6920013  74.9410019 100.7009964
 113.1819992  75.0039978 101.6959991 112.2050018  73.9440002 100.6429977
 111.6149979  76.0429993 100.6630020 111.0429993  75.9820023  99.7119980
 112.1250000  77.0289993 100.6800003 110.6500015  75.9850006 101.8550034
 109.9990005  76.8840027 101.8970032 111.2180023  75.9329987 102.8089981
 109.8349991  74.7360001 101.7180023 110.2399979  73.8629990 101.9909973
 108.5690002  74.6800003 101.3249969 107.8909988  75.7330017 100.9270020
 108.3710022  76.6060028 100.8460007 106.9469986  75.6320038 100.6100006
 107.9680023  73.5080032 101.3239975 107.0199966  73.4369965 101.0139999
 108.5459976  72.6959991 101.3990021 115.0090027  74.2519989  99.9300003
 115.5019989  74.2870026 101.0569992 115.5589981  73.4950027  98.9580002
 115.1920013  73.5699997  98.0339966 116.6200027  72.5179977  99.1689987
 117.4150009  72.9879990  99.7269974 116.9449997  72.1770020  98.1969986
 116.1849976  71.2910004  99.9410019 117.0270004  70.5729980 100.4779968
 114.8649979  71.0070038 100.0139999 114.2050018  71.6210022  99.5879974
 114.3789978  69.9120026 100.8450012 115.0179977  69.0559998 100.6880035
 114.4599991  70.3040009 102.3590012 115.5240021  70.5070038 102.6070023
 114.1289978  69.4499969 102.9879990 113.6179962  71.5270004 102.7379990
 112.6340027  71.9029999 102.0999985 114.0289993  72.2060013 103.8330002
 113.4710007  72.9860001 104.1169968 114.8160019  71.8870010 104.3610001
 112.9629974  69.4240036 100.5169983 112.5400009  68.3769989 101.0100021
 112.1940002  70.1360016  99.6679993 112.5169983  70.9840012  99.2559967
 110.7880020  69.8320007  99.4270020 110.4520035  69.0390015 100.0790024
 109.8639984  71.0289993  99.6549988 110.1660004  71.8809967  99.0090027
 109.9290009  71.4560013 101.0139999 110.8610001  71.5049973 101.2379990
 108.3939972  70.6679993  99.3629990 108.0790024  69.8059998  99.9889984
 108.2350006  70.4079971  98.2949982 107.7259979  71.5260010  99.5889969
 110.5920029  69.3720016  98.0039978 110.7269974  70.1470032  97.0579987
 110.2289963  68.0889969  97.8069992 110.1660004  67.4509964  98.5699997
 109.7990036  67.5859985  96.5159988 110.3870010  68.0599976  95.7440033
 110.0009995  66.0559998  96.4309998 109.3740005  65.5670013  97.2080002
 111.0609970  65.8339996  96.6770020 109.6859970  65.4110031  95.0640030
 108.6510010  65.6729965  94.7559967 110.6539993  65.8939972  93.9729996
 111.7050018  65.6770020  94.2630005 110.5520020  66.9879990  93.8069992
 110.4440002  65.3769989  93.0130005 109.7549973  63.8849983  95.1930008
 108.9769974  63.5139999  95.8949966 110.7509995  63.5989990  95.5920029
 109.6080017  63.3979988  94.2060013 108.3369980  67.9469986  96.2699966
 107.4769974  67.7730026  97.1360016 108.0309982  68.4990005  95.0859985
 108.7360001  68.6529999  94.3980026 106.7559967  69.1169968  94.8069992
 105.9990005  68.6869965  95.4469986 106.8509979  70.6309967  95.1159973
 107.7440033  71.0299988  94.5899963 107.0439987  70.7300034  96.2050018
 105.6380005  71.4919968  94.7330017 104.7119980  70.9820023  95.0729980
 105.5839996  71.5729980  93.6259995 105.7200012  73.1520004  95.4729996
 104.1320038  73.6900024  94.7919998 103.3069992  73.0240021  95.1240005
 104.1610031  73.6770020  93.6819992 103.8929977  74.7269974  95.1119995
 106.3079987  68.8259964  93.3799973 107.1029968  68.7949982  92.4390030
 105.0039978  68.5400009  93.2060013 104.3669968  68.6419983  93.9660034
 104.4550018  67.9459991  92.0029984 105.1819992  67.9789963  91.2050018
 104.1050034  66.4479980  92.3000031 103.5400009  66.3980026  93.2549973
 105.0459976  65.8730011  92.4359970 103.2829971  65.7649994  91.2330017
 101.9020004  65.5550003  91.4160004 101.4319992  65.8590012  92.3399963
 101.1259995  64.9919968  90.3949966 100.0650024  64.8470001  90.5380020
 101.7269974  64.6210022  89.1859970 101.1309967  64.1890030  88.3960037
 103.8779984  65.3710022  90.0230026 104.9349976  65.5309982  89.8700027
 103.1039963  64.8030014  89.0029984 103.5660019  64.5100021  88.0719986
 103.2500000  68.7419968  91.5070038 102.6070023  69.4680023  92.2639999
 102.9020004  68.6289978  90.2099991 103.4820023  68.1350021  89.5670013
 101.6090012  69.0660019  89.7259979 101.4680023  70.0920029  90.0339966
 100.8619995  68.3949966  90.1220016 101.4919968  69.0279999  88.2249985
 102.2730026  68.3889999  87.5169983 100.4860001  69.7429962  87.6999969
  99.8659973  70.2620010  88.2829971 100.2529984  69.8460007  86.2760010
 101.2119980  69.8629990  85.7789993  99.4390030  68.6610031  85.6750031
 100.0530014  67.7389984  85.7580032  99.2369995  68.8270035  84.5960007
  98.1269989  68.4150009  86.3840027  98.0179977  67.4150009  87.3690033
  98.8929977  66.8479996  87.6510010  96.7860031  67.1399994  87.9749985
  96.7129974  66.3690033  88.7279968  95.6439972  67.8590012  87.5979996
  94.6930008  67.6429977  88.0619965  96.9700012  69.1220016  86.0090027
  97.0329971  69.8759995  85.2379990  95.7369995  68.8529968  86.6149979
  94.8560028  69.4010010  86.3160019  99.6119995  71.1859970  85.9499969
  98.9309998  71.8089981  86.7699966  99.8639984  71.6760025  84.7320023
 100.4469986  71.1539993  84.1149979  99.3899994  72.9509964  84.2350006
  98.6080017  73.3259964  84.8789978 100.4990005  74.0019989  84.1600037
 101.4589996  73.4980011  83.9179993 100.6470032  74.6620026  85.4160004
  99.8889999  75.2480011  85.4830017 100.2409973  75.1019974  83.1179962
  99.2559967  75.5859985  83.2890015 100.2649994  74.6940002  82.0849991
 101.0360031  75.8750000  83.1729965  98.7399979  72.7310028  82.8870010
  99.3479996  72.2440033  81.9359970  97.4509964  73.0650024  82.7770004
  96.9599991  73.4380035  83.5609970  96.6380005  72.8489990  81.6019974
  97.0940018  72.1179962  80.9509964  95.2129974  72.4010010  82.0080032
  94.6399994  72.0970001  81.1060028  94.6819992  73.2570038  82.4749985
  95.1770020  71.2549973  83.0390015  95.7979965  71.5279999  83.9199982
  93.7529984  71.0820007  83.5759964  93.0650024  70.7710037  82.7610016
  93.3759995  72.0260010  84.0230026  93.7470016  70.3000031  84.3659973
  95.7389984  69.9499969  82.4570007  96.7990036  70.0790024  82.1480026
  95.1460037  69.6380005  81.5699997  95.6910019  69.1380005  83.2129974
  96.5009995  74.1579971  80.8590012  96.5299988  75.2180023  81.4800034
  96.3290024  74.1429977  79.5270004  96.3720016  73.3010025  78.9960022
  96.1179962  75.3700027  78.7929993  95.5759964  76.0520020  79.4309998
  97.4449997  76.0599976  78.3779984  97.9919968  76.3460007  79.3020020
  97.1949997  77.0039978  77.8489990  98.3700027  75.1869965  77.5059967
  97.7689972  74.6650009  76.7310028  98.8270035  74.4029999  78.1480026
  99.4879990  75.9550018  76.7910004 100.2239990  75.2419968  76.3629990
 100.0179977  76.6259995  77.5009995  98.8519974  76.7929993  75.7220001
  98.1279984  77.4430008  75.9489975  99.1409988  76.7779999  74.4309998
  99.8669968  75.8470001  73.8539963  99.9720001  74.9850006  74.3489990
  99.9700012  75.8700027  72.8600006  98.6449966  77.7490005  73.6940002
  98.1999969  78.5029984  74.1780014  98.9029999  77.8430023  72.7320023
  95.2399979  75.1849976  77.5589981  95.2310028  74.1460037  76.8980026
  94.4670029  76.2239990  77.2099991  94.4380035  77.0429993  77.7770004
  93.7760010  76.3170013  75.9359970  94.4580002  75.9649963  75.1760025
  92.4619980  75.5339966  75.8399963  92.6200027  74.5289993  76.2870026
  92.0680008  75.3519974  74.4789963  92.6399994  74.6849976  74.0940018
  91.3020020  76.2129974  76.5930023  91.0169983  77.1750031  76.1149979
  91.5869980  76.4069977  77.6490021  90.4100037  75.5520020  76.5859985
  93.5419998  77.7929993  75.6760025  93.5400009  78.6090012  76.5970001
  93.3710022  78.2030029  74.4049988  93.2789993  77.5419998  73.6650009
  93.3539963  79.6100006  74.0630035  93.4420013  80.2129974  74.9540024
  94.5719986  79.9530029  73.1729965  94.4739990  79.4690018  72.1770020
  95.4810028  79.5400009  73.6600037  94.7279968  81.4560013  72.9690018
  93.8069992  82.1449966  72.5210037  95.9110031  81.9980011  73.3330002
  96.0159988  82.9879990  73.2409973  96.5950012  81.4209976  73.7779999
  92.0199966  79.9820023  73.4369965  91.5989990  79.4369965  72.4169998
  91.3259964  80.9580002  74.0400009  91.7129974  81.4089966  74.8399963
  89.9919968  81.3820038  73.6770020  89.3970032  80.5000000  73.4940033
  89.3509979  82.2109985  74.8249969  88.3499985  82.5790024  74.5139999
  89.9960022  83.0869980  75.0520020  89.1269989  81.4410019  76.1110001
  88.9660034  80.0410004  76.1520004  89.0520020  79.4499969  75.2519989
  88.6729965  79.3830032  77.3529968  88.5479965  78.3109970  77.3659973
  88.5289993  80.1190033  78.5339966  88.3010025  79.6149979  79.4609985
  88.9980011  82.1600037  77.3150024  89.1119995  83.2340012  77.3069992
  88.7009964  81.5070038  78.5169983  88.6029968  82.0690002  79.4339981
  89.9179993  82.1709976  72.3740005  88.8430023  82.3430023  71.8030014
  91.0459976  82.6490021  71.8219986  91.9300003  82.5429993  72.2710037
  91.0579987  83.1449966  70.4580002  90.0950012  83.5739975  70.2229996
  92.1480026  84.2269974  70.2659988  92.2839966  84.4609985  69.1880035
  93.1190033  83.8789978  70.6790009  91.6969986  85.5210037  70.9369965
  90.5199966  85.8909988  70.9199982  92.6449966  86.2419968  71.5739975
  93.5429993  85.8389969  71.7500000  92.3860016  87.1320038  71.9489975
  91.2559967  82.0230026  69.4390030  90.9189987  82.1849976  68.2639999
  91.7490005  80.8399963  69.8590012  91.9729996  80.6930008  70.8190002
  92.0889969  79.7570038  68.9520035  92.1539993  80.1240005  67.9390030
  93.4570007  79.1399994  69.3499985  93.6790009  78.2480011  68.7259979
  93.4160004  78.8180008  70.4130020  94.6190033  80.1090012  69.1660004
  94.5210037  81.0839996  68.3740005  95.7089996  79.8229980  69.7360001
  91.0459976  78.6350021  68.9329987  91.0390015  77.8150024  68.0139999
  90.1060028  78.5820007  69.9059982  90.1770020  79.1790009  70.7020035
  88.9940033  77.6370010  69.8870010  89.4250031  76.6500015  69.8069992
  88.1210022  77.6839981  71.1709976  87.2070007  77.0680008  71.0360031
  87.7939987  78.7320023  71.3420029  88.7939987  77.1869965  72.4670029
  89.7200012  77.7779999  72.6389999  87.8600006  77.4229965  73.6640015
  86.9319992  76.8219986  73.5550003  87.5759964  78.4950027  73.7300034
  88.3619995  77.1279984  74.6100006  89.1819992  75.7030029  72.3880005
  89.9469986  75.5329971  71.5999985  88.2910004  75.0790024  72.1660004
  89.6080017  75.3710022  73.3590012  88.0790024  77.7939987  68.6740036
  87.7890015  78.9010010  68.2170029  87.5999985  76.6699982  68.1139984
  87.8320007  75.7740021  68.4850006  86.7379990  76.6579971  66.9499969
  86.1809998  77.5839996  66.9459991  87.5329971  76.5049973  65.6210022
  86.8349991  76.3259964  64.7760010  88.1809998  75.6070023  65.7070007
  88.4229965  77.7129974  65.2460022  89.0029984  77.4420013  64.3379974
  89.1600037  77.8880005  66.0579987  87.6449966  79.0059967  64.9580002
  87.0360031  79.3430023  65.8239975  86.9570007  78.8479996  64.1009979
  88.6409988  80.0599976  64.5770035  88.8560028  80.1969986  63.6100006
  89.2910004  80.8389969  65.4319992  89.1399994  80.7649994  66.7330017
  88.5770035  80.0350037  67.1200027  89.7369995  81.3219986  67.3099976
  90.1439972  81.7350006  64.9720001  90.2829971  81.8290024  63.9860001
  90.6340027  82.3280029  65.6110001  85.7440033  75.5039978  67.0889969
  86.0709991  74.5039978  67.7360001  84.5289993  75.5820007  66.5510025
  83.9909973  76.7730026  65.8759995  84.5350037  76.9729996  64.9290009
  84.0599976  77.6520004  66.5520020  83.4860001  74.6220016  66.8889999
  83.5910034  74.2710037  67.9049988  82.2050018  75.4550018  66.7310028
  82.0289993  76.0210037  67.6699982  81.3020020  74.8369980  66.5350037
  82.5179977  76.4520035  65.6169968  82.4039993  75.9599991  64.6269989
  81.8690033  77.3529968  65.6549988  83.5139999  73.4029999  65.9619980
  83.4820023  73.5360031  64.7360001  83.5550003  72.1750031  66.5240021
  83.5859985  72.0749969  67.5159988  83.6190033  70.9369965  65.7600021
  84.1819992  71.1149979  64.8560028  84.3529968  69.8560028  66.5680008
  83.8020020  69.6299973  67.5059967  85.3730011  70.2040024  66.8369980
  84.4550018  68.9179993  65.9810028  82.2320023  70.4369965  65.3369980
  81.8180008  69.3030014  65.5930023  81.4810028  71.3219986  64.6689987
  81.8730011  72.2239990  64.5039978  80.1119995  71.1490021  64.2409973
  79.5390015  70.9530029  65.1350021  79.5739975  72.4489975  63.5820007
  78.4990005  72.3270035  63.3289986  80.1320038  72.6230011  62.6370010
  79.7170029  73.7119980  64.4570007  80.7880020  73.8180008  64.7320023
  79.3499985  74.9850006  63.6790009  78.2939987  74.9509964  63.3330002
  80.0049973  75.0979996  62.7879982  79.4789963  75.8799973  64.3249969
  78.8980026  73.6019974  65.7509995  79.2440033  72.7460022  66.3679962
  77.8229980  73.4530029  65.5149994  79.0039978  74.5289993  66.3550034
  79.8270035  69.9929962  63.2840004  80.6250000  69.6439972  62.4099998
  78.6129990  69.4250031  63.4080009  78.0400009  69.6780014  64.1839981
  77.9300003  68.7429962  62.3310013  78.5459976  68.7949982  61.4449997
  77.6539993  67.2399979  62.5649986  76.8300018  66.8980026  61.9029999
  77.3310013  67.0790024  63.6160011  78.8880005  66.3860016  62.2270012
  79.7220001  66.7009964  62.8889999  79.1859970  66.6169968  61.1819992
  78.6460037  64.8789978  62.3489990  77.8270035  64.5540009  61.6720009
  78.3960037  64.6169968  63.4000015  79.9240036  64.2210007  61.9269981
  80.5630035  64.7259979  61.3479996  80.2160034  62.9399986  62.1220016
  79.4219971  62.1220016  62.7750015  78.5449982  62.4620018  63.1139984
  79.6979980  61.1699982  62.9080009  81.3499985  62.4640007  61.6489983
  81.9479980  63.0509987  61.1049995  81.5800018  61.5019989  61.7960014
  76.6610031  69.4950027  61.9770012  75.7129974  69.6019974  62.7570000
  76.6579971  70.0660019  60.7630005  77.4199982  69.9209976  60.1370010
  75.6559982  70.9879990  60.2970009  74.7570038  70.8880005  60.8870010
  76.2220001  72.4329987  60.4099998  77.1169968  72.5299988  59.7589989
  76.5429993  72.6060028  61.4589996  75.2360001  73.5309982  60.0470009
  73.9970016  73.3000031  60.0890007  75.7050018  74.6760025  59.7970009
  75.2979965  70.6159973  58.8600006  76.0090027  69.8700027  58.1809998
  74.1650009  71.1320038  58.3629990  73.6729965  71.7919998  58.9259987
  73.7959976  71.1039963  56.9580002  73.8089981  70.0660019  56.6599998
  72.3939972  71.6630020  56.6969986  72.2229996  71.8410034  55.6139984
  72.1569977  72.8619995  57.4360008  72.8479996  73.4800034  57.1860008
  71.3509979  70.6419983  57.1790009  71.4619980  70.4509964  58.2680016
  71.4639969  69.6800003  56.6360016  70.3249969  71.0299988  56.9990005
  74.8010025  71.8889999  56.1059990  75.1869965  72.9879990  56.5209999
  75.2789993  71.4250031  54.9469986  74.8349991  70.1780014  54.3100014
  73.7440033  70.0090027  54.4290009  75.4020004  69.3339996  54.7570000
  76.0770035  72.2440033  54.0330009  76.9599991  72.5759964  54.5579987
  76.3980026  71.2860031  52.8750000  77.3050003  70.6999969  53.1380005
  76.5770035  71.8010025  51.9080009  75.1940002  70.3420029  52.8310013
  74.3539963  70.8339996  52.2960014  75.4270020  69.3730011  52.3390007
  75.3519974  73.5029984  53.5690002  74.1200027  73.5410004  53.5690002
  76.0879974  74.5670013  53.1829987  77.0849991  74.5439987  53.2039986
  75.4670029  75.7610016  52.6339989  74.7860031  76.0879974  53.4049988
  76.4609985  76.9309998  52.4300003  75.9589996  77.7590027  51.8860016
  77.3239975  76.5979996  51.8149986  76.9430008  77.4909973  53.7719994
  77.5559998  76.7289963  54.2980003  76.0510025  77.6859970  54.4039993
  77.7399979  78.8010025  53.6539993  77.1429977  79.5429993  53.0839996
  78.6829987  78.6110001  53.0989990  78.0360031  79.3460007  55.0550003
  78.6169968  78.5989990  55.6360016  77.0719986  79.5329971  55.5750008
  78.7929993  80.6169968  55.0540009  78.3170013  81.3460007  54.4850006
  79.7659988  80.4919968  54.7099991  78.8150024  80.9260025  56.0460014
  74.6770020  75.5120010  51.3440018  75.1470032  74.7369995  50.5040016
  73.5000000  76.1090012  51.1259995  72.7289963  76.8369980  52.1349983
  73.0889969  77.8870010  52.1749992  72.7929993  76.3679962  53.1399994
  72.7470016  75.9580002  49.8829994  72.4980011  74.9130020  49.7799988
  71.4860001  76.8119965  50.1020012  70.6090012  76.4069977  49.5530014
  71.6539993  77.8649979  49.7910004  71.2959976  76.7699966  51.6180000
  70.6800003  77.6029968  52.0200005  70.8359985  75.8010025  51.9070015
  73.5370026  76.3600006  48.6469994  73.9990005  77.4990005  48.5620003
  73.7200012  75.4410019  47.6780014  73.3610001  74.5159988  47.7799988
  74.4240036  75.7220001  46.4440002  75.3980026  76.1039963  46.7099991
  74.6139984  74.4309998  45.6240005  73.6309967  73.9980011  45.3380013
  75.1630020  73.6770020  46.2280006  75.1999969  74.6259995  44.7000008
  73.7350006  76.7880020  45.5970001  72.5070038  76.8489990  45.5149994
  74.5159988  77.6699982  44.9379997  75.5090027  77.6409988  45.0209999
  73.9629974  78.6630020  44.0359993  73.1149979  79.1119995  44.5320015
  74.9830017  79.8000031  43.7700005  75.9209976  79.3730011  43.3549995
  75.2229996  80.2890015  44.7379990  74.4609985  80.8560028  42.8230019
  75.0999985  81.0970001  41.5960007  75.9649963  80.5110016  41.3190002
  74.6230011  82.0849991  40.7239990  75.1190033  82.2460022  39.7779999
  73.5059967  82.8509979  41.0779991  73.0029984  83.8300018  40.1910019
  73.5279999  83.8170013  39.3870010  73.3470001  81.6380005  43.1739998
  72.8509979  81.4729996  44.1199989  72.8710022  82.6309967  42.3069992
  72.0070038  83.2190018  42.5800018  73.4300003  78.0169983  42.7570000
  74.1740036  77.4599991  41.9459991  72.1009979  78.0589981  42.5880013
  71.5479965  78.5599976  43.2490005  71.3830032  77.3430023  41.5569992
  72.0059967  77.2279968  40.6819992  70.9520035  75.9179993  42.0239983
  70.3150024  75.4639969  41.2350006  70.3430023  76.0110016  42.9490013
  72.1360016  74.9560013  42.3009987  72.7490005  75.3440018  43.1430016
  72.7779999  74.8919983  41.3959999  71.6740036  73.5429993  42.6730003
  70.4860001  73.2289963  42.7890015  72.6620026  72.6370010  42.8740005
  72.4079971  71.7009964  43.1180000  73.6190033  72.9049988  42.7589989
  70.1490021  78.1549988  41.1650009  69.0329971  77.7900009  41.5470009
  70.2809982  79.2839966  40.4620018  71.5370026  79.7559967  39.8670006
  72.1100006  78.9329987  39.3889999  72.1490021  80.2320023  40.6619987
  69.1500015  80.1139984  40.0649986  68.6129990  80.4140015  40.9529991
  69.7979965  81.3339996  39.3919983  70.0309982  82.0920029  40.1710014
  69.1559982  81.8059998  38.6180000  71.1139984  80.7939987  38.8250008
  70.9229965  80.2880020  37.8540001  71.8769989  81.5879974  38.6829987
  68.1350021  79.3990021  39.1749992  68.4250031  79.0599976  38.0250015
  66.9140015  79.1859970  39.6910019  66.7279968  79.4649963  40.6310005
  65.7689972  78.7220001  38.9469986  66.0960007  77.8769989  38.3600006
  64.6679993  78.2639999  39.9239998  64.3389969  79.1090012  40.5670013
  65.0579987  77.4619980  40.5859985  63.7840004  77.8669968  39.3800011
  65.2239990  79.8160019  38.0180016  65.4039993  81.0019989  38.3209991
  64.5739975  79.5110016  36.8880005  64.5230026  78.1660004  36.3120003
  63.9140015  77.5100021  36.9700012  65.5429993  77.7429962  36.1839981
  63.6739998  80.4300003  36.1850014  64.3109970  81.1110001  35.6409988
  62.8689995  79.5189972  35.2449989  62.5569992  80.0469971  34.3190002
  61.9690018  79.1200027  35.7610016  63.8289986  78.3600006  34.9640007
  63.3079987  77.4430008  34.6150017  64.5780029  78.6699982  34.2039986
  62.7879982  81.3040009  37.0750008  62.1380005  80.7870026  37.9860001
  62.7470016  82.6289978  36.8349991  63.2610016  83.0299988  36.0810013
  62.0260010  83.5520020  37.6930008  62.2140007  83.2679977  38.7179985
  62.5470009  85.0039978  37.5359993  61.8979988  85.6900024  38.1209984
  62.4860001  85.3000031  36.4669991  63.9959984  85.1800003  38.0600014
  64.6800003  84.4840012  37.5289993  64.0130005  84.9219971  39.1399994
  64.5660019  86.5920029  37.9090004  65.7020035  86.8069992  38.4199982
  63.9309998  87.4860001  37.2879982  60.5149994  83.4940033  37.4939995
  59.9930000  83.7360001  36.4039993  59.7659988  83.1500015  38.5600014
  60.1920013  82.9369965  39.4360008  58.3100014  83.1179962  38.5670013
  57.9920006  82.6790009  37.6329994  57.7470016  82.2210007  39.7070007
  58.0950012  81.1829987  39.5159988  56.6370010  82.2050018  39.6930008
  58.2239990  82.6119995  40.9990005  57.5919991  83.2450027  41.3479996
  57.6899986  84.5070038  38.6259995  58.2760010  85.4499969  39.1510010
  56.4780006  84.6979980  38.0610008  55.9980011  83.9499969  37.6080017
  55.8160019  86.0000000  38.0250015  56.4830017  86.6869965  37.5250015
  54.5050011  85.9309998  37.2029991  53.9710007  86.9020004  37.2939987
  53.8470001  85.1409988  37.6240005  54.7519989  85.6709976  35.6940002
  55.2630005  84.6940002  35.5550003  55.4160004  86.4670029  35.2960014
  53.4809990  85.6549988  34.8429985  53.6080017  85.4639969  33.6020012
  52.3530006  85.8280029  35.3769989  55.5419998  86.6060028  39.4039993
  55.7480011  87.7990036  39.6370010  55.0989990  85.7630005  40.3580017
  54.9259987  84.8140030  40.1080017  55.0250015  86.0879974  41.7770004
  53.9900017  86.2750015  42.0250015  55.6860008  86.9100037  42.0099983
  55.4889984  84.9069977  42.5779991  55.9739990  83.9189987  42.0260010
  55.3320007  84.9540024  43.9140015  54.9550018  85.7679977  44.3489990
  55.6040001  83.8249969  44.7929993  56.6279984  83.5270004  44.6209984
  55.4399986  84.2180023  46.2859993  55.4889984  83.3170013  46.9329987
  54.4309998  84.6640015  46.4129982  56.4860001  85.2210007  46.8180008
  56.5299988  86.0899963  46.1259995  56.0699997  85.7340012  48.2050018
  56.0019989  84.8870010  48.9199982  55.0820007  86.2389984  48.1570015
  56.8230019  86.4520035  48.5940018  57.8889999  84.6019974  46.9109993
  58.1959991  84.1380005  45.9500008  57.9150009  83.8239975  47.7029991
  58.6349983  85.3820038  47.1730003  54.7400017  82.5920029  44.5110016
  53.5359993  82.6880035  44.2649994  55.3559990  81.3899994  44.5550003
  56.3289986  81.3310013  44.7639999  54.6920013  80.1250000  44.2869987
  53.6590004  80.2880020  44.0200005  55.4090004  79.3430023  43.1539993
  54.8699989  78.3880005  42.9760017  56.4410019  79.0849991  43.4749985
  55.5219994  80.1029968  41.8089981  55.9560013  79.4290009  41.0390015
  56.2150002  80.9619980  41.9360008  54.1660004  80.5940018  41.2960014
  53.2589989  79.8050003  41.0120010  54.0110016  81.9300003  41.1479988
  53.1290016  82.2710037  40.8240013  54.7290001  82.5469971  41.4700012
  54.7229996  79.2860031  45.5530014  55.7799988  79.0790024  46.1459999
  53.5559998  78.7870026  46.0130005  52.7140007  78.9270020  45.4990005
  53.4059982  78.1719971  47.3250008  53.6860008  78.9160004  48.0559998
  51.8940010  77.8440018  47.5489998  51.5079994  77.3030014  46.6590004
  51.3230019  78.7919998  47.6430016  51.6119995  77.0000000  48.7709999
  51.2010002  75.6620026  48.6459999  51.0800018  75.2279968  47.6640015
  50.9650002  74.8779984  49.7840004  50.6580009  73.8489990  49.6689987
  51.1300011  75.4319992  51.0600014  50.8950005  74.6539993  52.2179985
  50.6199989  73.7750015  51.9490013  51.7680016  77.5469971  50.0550003
  52.0880013  78.5729980  50.1609993  51.5299988  76.7669983  51.1949997
  51.6570015  77.1949997  52.1780014  54.3120003  76.9680023  47.6080017
  54.9620018  76.8970032  48.6500015  54.4129982  76.0070038  46.6669998
  53.9029999  76.0709991  45.8129997  55.2929993  74.8440018  46.7900009
  55.0639992  74.3639984  47.7290001  55.0830002  73.8119965  45.6839981
  55.8889999  73.0469971  45.6839981  54.9910011  74.4349976  44.4020004
  54.9840012  73.7330017  43.7480011  53.7430000  73.1029968  45.9430008
  52.8989983  73.8249969  45.9220009  53.7540016  72.6070023  46.9370003
  53.5569992  72.3249969  45.1710014  56.7680016  75.1979980  46.8590012
  57.5130005  74.6949997  47.7019997  57.2220001  76.1200027  45.9869995
  56.6080017  76.4589996  45.2779999  58.5760002  76.6650009  45.9889984
  59.2669983  75.8399963  45.9020004  58.8030014  77.6370010  44.8310013
  58.1650009  78.5380020  44.9580002  58.4440002  77.0429993  43.5849991
  58.9539986  76.2350006  43.4920006  60.2719994  78.0719986  44.7319984
  60.9440002  77.1930008  44.6399994  60.5789986  78.6620026  45.6220016
  60.4109993  78.7149963  43.8370018  58.9000015  77.3949966  47.2779999
  59.9339981  77.1610031  47.9049988  57.9799995  78.2600021  47.7439995
  57.1570015  78.4570007  47.2159996  58.0919991  78.9649963  49.0060005
  59.0449982  79.4739990  49.0040016  57.0219994  80.0370026  49.1549988
  56.0200005  79.6080017  48.9389992  57.0219994  80.6340027  50.5719986
  58.0530014  80.9169998  50.8709984  56.6119995  79.9179993  51.3160019
  56.3969994  81.5530014  50.5859985  57.3260002  81.1579971  48.1469994
  57.3079987  80.7890015  47.0989990  58.3289986  81.5910034  48.3470001
  56.5709991  81.9670029  48.2480011  58.1360016  78.0370026  50.2070007
  58.9790001  78.1930008  51.0830002  57.2879982  76.9909973  50.2610016
  56.5740013  76.8870010  49.5740013  57.3100014  75.9950027  51.3129997
  57.1430016  76.5059967  52.2500000  56.1759987  74.9779968  51.0849991
  56.3160019  74.4359970  50.1250000  55.1990013  75.5049973  51.0429993
  56.1339989  74.2360001  51.9109993  58.6489983  75.2659988  51.4399986
  59.1640015  75.0589981  52.5419998  59.2789993  74.9049988  50.3019981
  58.8139992  75.0250015  49.4280014  60.6450005  74.4059982  50.2680016
  60.6980019  73.5550003  50.9300003  61.0530014  73.9670029  48.8339996
  62.1180000  73.6500015  48.8199997  60.9249992  74.8140030  48.1269989
  60.2200012  72.7760010  48.3629990  59.5730019  72.0589981  49.1310005
  60.2270012  72.5429993  47.0279999  59.6920013  71.7750015  46.6780014
  60.7750015  73.1169968  46.4189987  61.6689987  75.4150009  50.7989998
  62.5359993  75.0680008  51.5999985  61.5649986  76.7050018  50.4039993
  60.8709984  76.9680023  49.7379990  62.3800011  77.7819977  50.9480019
  63.4129982  77.5029984  50.8079987  62.1459999  79.1200027  50.1969986
  62.6640015  79.9440002  50.7330017  61.0589981  79.3489990  50.2070007
  62.6629982  79.1039963  48.7400017  62.1819992  78.2809982  48.1710014
  63.7599983  78.9309998  48.7229996  62.3139992  80.4140015  48.0270004
  61.1539993  80.6999969  47.7200012  63.3440018  81.2419968  47.7319984
  63.1339989  82.1029968  47.2700005  64.2839966  80.9820023  47.9560013
  62.2179985  78.0059967  52.4480019  63.1990013  78.1080017  53.1759987
  60.9760017  78.0230026  52.9640007  60.1949997  77.9960022  52.3440018
  60.6640015  78.0970001  54.3800011  61.1180000  78.9919968  54.7779999
  59.1290016  78.1559982  54.5970001  58.9010010  78.0950012  55.6819992
  58.6699982  77.2730026  54.1030006  58.4290009  79.4229965  54.0559998
  58.7210007  79.5830002  52.9970016  56.9039993  79.2460022  54.0999985
  56.5680008  79.0520020  55.1409988  56.5929985  78.3909988  53.4609985
  56.4000015  80.1640015  53.7299995  58.8300018  80.6849976  54.8250008
  59.9179993  80.8860016  54.7260017  58.5839996  80.5589981  55.9010010
  58.2729988  81.5660019  54.4410019  61.2360001  76.9280014  55.1769981
  61.8199997  77.0979996  56.2459984  61.1240005  75.6959991  54.6399994
  60.6110001  75.5830002  53.7929993  61.7410011  74.5019989  55.2220001
  61.3849983  74.4079971  56.2369995  61.3759995  73.2220001  54.4650002
  61.6949997  73.3000031  53.4039993  59.9679985  72.9990005  54.5019989
  59.5629997  73.6780014  53.9580002  62.0289993  71.9800034  55.0970001
  61.7589989  71.9089966  56.1720009  63.1360016  72.0049973  55.0060005
  61.6739998  71.0589981  54.5870018  63.2570000  74.6129990  55.2989998
  63.8750000  74.3450012  56.3300018  63.9010010  75.0780029  54.2080002
  63.3969994  75.2720032  53.3699989  65.3190002  75.3700027  54.1689987
  65.8440018  74.4720001  54.4589996  65.7259979  75.7340012  52.7270012
  65.2180023  76.6630020  52.3919983  65.4369965  74.9150009  52.0349998
  66.8249969  75.8820038  52.6500015  65.7549973  76.4649963  55.1430016
  66.7610016  76.3359985  55.8400002  64.9879990  77.5680008  55.2480011
  64.2170029  77.6949997  54.6279984  65.2200012  78.6350021  56.2060013
  66.2239990  79.0000000  56.0470009  64.2249985  79.8050003  55.9980011
  64.2409973  80.5000000  56.8650017  63.2010002  79.3799973  55.9280014
  64.5000000  80.6470032  54.7360001  64.7360001  79.9649963  53.8909988
  63.2500000  81.4449997  54.3470001  62.9300003  82.1019974  55.1839981
  62.4140015  80.7559967  54.0999985  63.4599991  82.0770035  53.4580002
  65.6949997  81.5930023  54.9249992  66.6179962  81.0210037  55.1599998
  65.5019989  82.3079987  55.7519989  65.8700027  82.1760025  53.9949989
  65.1589966  78.1750031  57.6529999  66.0059967  78.5410004  58.4679985
  64.1679993  77.3379974  58.0050011  63.4519997  77.0989990  57.3540001
  64.0839996  76.7529984  59.3240013  64.1559982  77.5690002  60.0279999
  62.6930008  76.1159973  59.5610008  62.4510002  75.4319992  58.7190018
  61.9510002  76.9430008  59.5390015  62.5639992  75.3450012  60.8839989
  63.2120018  75.8300018  61.6450005  62.9290009  74.3050003  60.7439995
  61.1300011  75.3470001  61.4449997  60.4309998  74.9400024  60.6839981
  60.8559990  76.4079971  61.6290016  61.0099983  74.5319977  62.7449989
  61.9020004  74.7149963  63.3820000  60.9480019  73.4469986  62.5169983
  59.8129997  74.9300003  63.5289993  58.9550018  74.9319992  62.9410019
  59.9700012  75.8880005  63.9039993  59.6629982  74.2900009  64.3339996
  65.2259979  75.8280029  59.7369995  65.7789993  75.9690018  60.8289986
  65.6510010  74.8840027  58.8730011  65.1859970  74.7600021  57.9990005
  66.6259995  73.8789978  59.2789993  66.6529999  73.8140030  60.3569984
  66.2249985  72.4789963  58.7420006  66.9830017  71.7139969  59.0169983
  66.1220016  72.5000000  57.6360016  64.9169998  72.0500031  59.3619995
  64.8399963  71.7870026  60.7420006  65.7200012  71.9020004  61.3569984
  63.6329994  71.3820038  61.3279991  63.5950012  71.1859970  62.3899994
  62.4869995  71.2330017  60.5359993  61.2610016  70.8209991  61.1110001
  61.4150009  70.5869980  62.0289993  63.7639999  71.8769989  58.5769997
  63.8120003  72.0599976  57.5139999  62.5530014  71.4820023  59.1609993
  61.6710014  71.3610001  58.5489998  68.0630035  74.1819992  58.8660011
  69.0139999  73.8089981  59.5589981  68.2779999  74.9089966  57.7490005
  67.5179977  75.2490005  57.2000008  69.6129990  75.2020035  57.2589989
  70.3050003  74.4909973  57.6850014  69.6900024  75.0479965  55.7099991
  69.1460037  75.8679962  55.1940002  69.1920013  74.0889969  55.4510002
  71.1299973  75.0270004  55.1879997  72.0279999  75.7269974  55.6640015
  71.3880005  74.1529999  54.1870003  72.3379974  74.0350037  53.8969994
  70.6569977  73.5899963  53.8030014  70.0439987  76.5719986  57.7610016
  71.0149994  76.6800003  58.5070000  69.3000031  77.6480026  57.4210014
  68.4899979  77.5400009  56.8489990  69.6529999  78.9990005  57.8260002
  70.7180023  79.1230011  57.6920013  68.9290009  80.0210037  56.9319992
  67.8310013  79.9909973  57.1020012  69.1289978  79.8020020  55.8619995
  69.2900009  81.0500031  57.1450005  69.3669968  79.2979965  59.2999992
  69.9410019  80.2149963  59.8899994  68.5000000  78.4919968  59.9459991
  67.9700012  77.8330002  59.4179993  68.3140030  78.5039978  61.3880005
  69.2639999  78.7300034  61.8489990  67.9390030  77.5319977  61.6699982
  67.3379974  79.5179977  61.9119987  67.5029984  80.0250015  63.0209999
  66.2900009  79.8389969  61.1380005  66.1880035  79.4260025  60.2369995
  65.2559967  80.7639999  61.5620003  65.5609970  81.2819977  62.4589996
  64.9300003  81.8180008  60.4710007  64.0650024  82.4410019  60.7840004
  64.6640015  81.3119965  59.5180016  66.0950012  82.7360001  60.2109985
  66.1910019  83.9690018  60.8790016  65.4520035  84.2340012  61.6209984
  67.2220001  84.8679962  60.5789986  67.2779999  85.8140030  61.0970001
  68.1770020  84.5400009  59.6100006  68.9749985  85.2300034  59.3790016
  67.0500031  82.4260025  59.2270012  66.9749985  81.4909973  58.6920013
  68.0930023  83.3160019  58.9370003  68.8369980  83.0579987  58.1980019
  63.9700012  80.0120010  61.8769989  63.3069992  79.5009995  60.9780006
  63.5589981  79.9250031  63.1609993  64.0830002  80.3700027  63.8829994
  62.2610016  79.3809967  63.5219994  62.1699982  78.4609985  62.9640007
  62.1199989  78.9960022  65.0210037  62.1440010  79.9059982  65.6569977
  62.9729996  78.3460007  65.3109970  60.8289986  78.2170029  65.2799988
  60.4640007  77.3639984  64.4169998  60.1790009  78.4140015  66.3399963
  61.1049995  80.2760010  63.0480003  61.2280006  81.5019989  62.9430008
  59.9620018  79.6299973  62.7439995  59.9249992  78.6770020  63.0359993
  58.7610016  80.1969986  62.1660004  58.2220001  79.3700027  61.7280006
  57.8730011  80.7519989  63.2900009  58.3540001  81.6279984  63.7739983
  57.7130013  79.9710007  64.0640030  56.8820000  81.0599976  62.8930016
  58.9510002  81.2269974  61.0340004  58.4129982  82.3389969  61.1250000
  59.7350006  80.9369965  59.9840012  60.1580009  79.5800018  59.6220016
  59.3460007  78.8389969  59.7830009  61.0359993  79.3020020  60.2430000
  59.9760017  81.8690033  58.8950005  60.4280014  82.7529984  59.3209991
  60.9440002  81.1190033  57.9679985  61.9809990  81.2639999  58.3400002
  60.8959999  81.4550018  56.9099998  60.5610008  79.6510010  58.1489983
  59.6839981  79.4010010  57.5139999  61.3989983  78.9609985  57.9119987
  58.7089996  82.3320007  58.1870003  57.7910004  81.5370026  57.9690018
  58.6559982  83.6240005  57.8320007  59.3860016  84.2310028  58.1360016
  57.6090012  84.2330017  57.0460014  56.9860001  83.4560013  56.6269989
  56.7200012  85.1760025  57.9010010  57.3769989  85.8560028  58.4840012
  56.1809998  84.5329971  58.6290016  55.7080002  86.0289993  57.0950012
  55.1710014  85.3789978  56.3720016  56.2560005  86.8059998  56.5200005
  54.6459999  86.7360001  57.9430008  53.8800011  87.5360031  57.3409996
  54.5369987  86.5029984  59.1780014  58.2050018  84.9700012  55.8610001
  59.1850014  85.7050018  56.0040016  57.6370010  84.7659988  54.6559982
  56.8600006  84.1460037  54.5800018  58.0900002  85.3700027  53.4140015
  58.9210014  86.0270004  53.6230011  58.5929985  84.3290024  52.4049988
  57.8390007  83.5159988  52.3320007  58.7739983  84.9509964  51.0009995
  59.4729996  85.8140030  51.0519981  57.8079987  85.2929993  50.5719986
  59.1910019  84.2080002  50.2879982  59.9249992  83.7129974  52.9080009
  59.8030014  83.3840027  53.9630013  60.7060013  84.5029984  52.9000015
  60.4029999  82.5090027  52.0859985  60.6049995  82.7910004  51.0309982
  59.6380005  81.7030029  52.0999985  61.3429985  82.0970001  52.5110016
  56.9879990  86.2460022  52.8219986  55.8479996  85.8180008  52.6230011
  57.3170013  87.5230026  52.5340004  58.2490005  87.8280029  52.7150002
  56.4249992  88.5019989  51.9399986  55.5320015  88.0120010  51.5820007
  56.0270004  89.6220016  52.9430008  55.3800011  90.3590012  52.4210014
  56.9519997  90.1500015  53.2570000  55.2949982  89.1500015  54.2220001
  55.8989983  88.3870010  54.7560005  54.3100014  88.7129974  53.9529991
  55.0540009  90.3369980  55.1640015  55.2480011  91.5009995  54.7999992
  54.6240005  90.0510025  56.4129982  54.3979988  89.1100006  56.6679993
  54.3909988  90.8160019  57.0139999  57.0919991  89.1800003  50.7420006
  58.1839981  89.7399979  50.8440018  56.4379997  89.1800003  49.5629997
  55.5620003  88.7160034  49.4580002  56.9129982  89.9209976  48.4049988
  57.9669991  90.1389999  48.5029984  56.7039986  89.1100006  47.0999985
  55.6370010  88.8089981  47.0379982  57.3079987  88.1790009  47.1679993
  57.0800018  89.8300018  45.7849998  56.5680008  90.8150024  45.7389984
  58.5919991  90.0800018  45.6930008  59.1469994  89.1179962  45.7050018
  58.9449997  90.7040024  46.5419998  58.8320007  90.6129990  44.7480011
  56.5830002  89.0289993  44.5719986  55.4739990  88.9520035  44.5870018
  57.0029984  88.0009995  44.5849991  56.8889999  89.5260010  43.6259995
  56.1739998  91.2460022  48.3009987  54.9539986  91.2750015  48.1279984
  56.8919983  92.3840027  48.3989983  57.8779984  92.3550034  48.5449982
  56.3129997  93.7030029  48.2130013  55.4080009  93.6039963  47.6320000
  55.9599991  94.4160004  49.5519981  55.7029991  95.4779968  49.3530006
  56.8619995  94.4069977  50.2000008  54.7779999  93.7880020  50.3349991
  54.6829987  94.3310013  51.2999992  55.0260010  92.7310028  50.5690002
  53.4290009  93.8509979  49.5979996  53.5000000  93.3239975  48.6230011
  53.1320000  94.9079971  49.4309998  52.3950005  93.1760025  50.4500008
  52.6370010  92.8420029  51.3610001  51.1720009  92.8700027  50.0330009
  50.7400017  93.1429977  48.8199997  51.3440018  93.6090012  48.1739998
  49.8129997  92.8799973  48.5519981  50.3400002  92.2720032  50.8619995
  50.5769997  92.2259979  51.8320007  49.3989983  92.0970001  50.5709991
  57.2299995  94.5690002  47.3580017  58.4160004  94.7379990  47.6479988
  56.6910019  95.1340027  46.2509995  55.7140007  95.0540009  46.0709991
  57.4430008  95.8489990  45.2260017  56.7859993  95.9120026  44.3720016
  57.7750015  97.3069992  45.6640015  58.3269997  97.8460007  44.8650017
  58.3930016  97.2839966  46.5859985  56.5200005  98.1259995  45.9529991
  55.4059982  97.7839966  45.4729996  56.6640015  99.2050018  46.5900002
  58.6570015  95.0589981  44.7000008  58.5279999  93.9100037  44.2729988
  59.8680000  95.6539993  44.7130013  59.9620018  96.5930023  45.0349998
  61.0839996  95.0039978  44.2540016  60.8400002  94.2269974  43.5449982
  62.0070000  96.0220032  43.5419998  62.9570007  95.5169983  43.2639999
  62.2579994  96.8570023  44.2299995  61.4109993  96.5879974  42.2420006
  60.5180016  97.2119980  42.4570007  61.0830002  95.7350006  41.6100006
  62.4609985  97.4069977  41.4720001  63.3909988  96.7990036  41.4550018
  62.6790009  98.3389969  42.0369987  62.0690002  97.7379990  40.0250015
  61.1889992  98.4160004  40.0019989  61.8219986  96.8050003  39.4760017
  63.1980019  98.3990021  39.3250008  64.0459976  97.8000031  39.3759995
  63.4199982  99.3150024  39.7639999  62.9690018  98.5589981  38.3230019
  61.8559990  94.3379974  45.3889999  63.0079994  93.9300003  45.2220001
  61.2340012  94.2080002  46.5769997  60.2809982  94.4810028  46.6800003
  61.8870010  93.6999969  47.7739983  62.9220009  93.4769974  47.5610008
  61.8629990  94.6760025  48.9449997  60.8170013  94.9000015  49.2430000
  62.5060005  95.8949966  48.5820007  61.9809990  96.3000031  47.8880005
  62.6339989  94.1159973  50.1529999  63.6650009  93.8290024  49.8530006
  62.1240005  93.2289963  50.5839996  62.6959991  94.8850021  50.9519997
  61.2260017  92.4209976  48.2319984  60.0159988  92.3529968  48.4630013
  62.0260010  91.3529968  48.4000015  62.9990005  91.4150009  48.1899986
  61.5579987  90.1269989  49.0070000  60.4809990  90.0810013  48.9399986
  62.1409988  88.8820038  48.2960014  63.2470016  88.8750000  48.4039993
  61.9129982  88.9720001  47.2130013  61.5730019  87.5309982  48.7789993
  61.7849998  87.4179993  49.8639984  60.0540009  87.4489975  48.5709991
  59.7970009  87.6299973  47.5050011  59.5219994  88.1949997  49.1990013
  59.6850014  86.4390030  48.8499985  62.2560005  86.3669968  48.0480003
  63.3530006  86.3909988  48.2190018  62.0639992  86.4329987  46.9560013
  61.8629990  85.3939972  48.4150009  61.9230003  90.1399994  50.4860001
  63.0960007  90.1250000  50.8670006  60.9049988  90.2040024  51.3600006
  59.9599991  90.1780014  51.0439987  61.0620003  90.2480011  52.7960014
  62.0419998  90.6309967  53.0419998  59.9920006  91.1250000  53.5019989
  60.0530014  91.0090027  54.6049995  58.9780006  90.8040009  53.1819992
  60.1389999  92.5879974  53.1899986  60.8390007  93.4229965  54.0789986
  61.3260002  92.9929962  54.9420013  60.8629990  94.8109970  53.8889999
  61.3829994  95.4400024  54.5970001  60.1920013  95.3799973  52.8009987
  60.1829987  96.7779999  52.6310005  60.5009995  97.1669998  53.4490013
  59.4720001  93.1699982  52.0960007  58.9090004  92.5439987  51.4189987
  59.5060005  94.5579987  51.8969994  58.9830017  94.9970016  51.0600014
  60.9589996  88.8580017  53.3940010  59.9970016  88.1259995  53.1689987
  61.9570007  88.4830017  54.1990013  62.7540016  89.0729980  54.2999992
  61.9770012  87.2829971  54.9949989  61.0289993  86.7720032  54.9109993
  63.0940018  86.3199997  54.5120010  64.0579987  86.8710022  54.4819984
  62.8460007  86.0400009  53.4659996  63.2690010  85.0230026  55.3300018
  63.7610016  84.2750015  54.6730003  62.2589989  84.6269989  55.5670013
  64.2730026  85.1910019  56.8419991  63.5509987  83.7679977  57.6980019
  63.8510017  82.8119965  57.2179985  62.4410019  83.8209991  57.7000008
  63.8870010  83.7440033  58.7570000  62.1440010  87.6780014  56.4519997
  62.9169998  88.5770035  56.7890015  61.4039993  87.0390015  57.3769989
  60.7190018  86.3659973  57.1100006  61.6180000  87.2779999  58.7949982
  62.6580009  87.5289993  58.9420013  60.7410011  88.4280014  59.3769989
  60.8610001  89.3170013  58.7220001  61.1209984  88.6969986  60.3849983
  59.3450012  88.1070023  59.4710007  59.0120010  88.0009995  58.5769997
  61.3940010  86.0100021  59.5880013  60.6450005  85.1259995  59.1759987
  62.0709991  85.8769989  60.7480011  62.7060013  86.5810013  61.0579987
  61.9510002  84.7030029  61.5999985  62.2470016  83.8300018  61.0359993
  60.9399986  84.6520004  61.9770012  62.8759995  84.8270035  62.7770004
  63.6349983  85.7910004  62.8839989  62.8440018  83.8539963  63.7029991
  62.2449989  83.0650024  63.5880013  63.6529999  83.8970032  64.9100037
  63.9700012  84.9160004  65.0739975  62.8540001  83.5009995  66.1780014
  62.3460007  82.5289993  66.0009995  62.0660019  84.2720032  66.3180008
  63.7200012  83.3850021  67.4560013  64.4260025  84.2419968  67.5009995
  64.3119965  82.4449997  67.4469986  62.8680000  83.4530029  68.7249985
  62.4840012  84.5390015  69.1740036  62.5769997  82.2860031  69.3379974
  62.0509987  82.3059998  70.1880035  62.9220009  81.4290009  68.9550018
  64.9290009  83.0759964  64.7969971  64.9059982  81.8509979  64.6880035
  66.0989990  83.7480011  64.8069992  66.1100006  84.7369995  64.9359970
  67.3830032  83.1050034  64.5910034  67.2590027  82.3850021  63.7960014
  68.4179993  84.1740036  64.1439972  68.4820023  84.9749985  64.9110031
  68.0149994  84.6510010  63.2249985  69.8509979  83.6760025  63.8339996
  70.4000015  83.5199966  64.7870026  70.4039993  84.4430008  63.2500000
  69.8899994  82.3489990  63.0750008  70.5159988  81.3880005  63.5250015
  69.2269974  82.2789993  61.9039993  69.3320007  81.4489975  61.3559990
  68.6900024  83.0530014  61.5670013  67.8870010  82.3460007  65.8199997
  68.2620010  82.9469986  66.8300018  67.9140015  80.9990005  65.7689972
  67.6220016  80.5279999  64.9400024  68.2070007  80.1679993  66.9280014
  68.2020035  80.7669983  67.8280029  67.1100006  79.0680008  67.0820007
  66.1149979  79.5599976  67.1190033  67.2490005  78.5380020  68.0490036
  67.0810013  78.0110016  65.9950027  66.2040024  78.1259995  64.9039993
  65.5859985  79.0070038  64.8180008  66.1210022  77.1139984  63.9370003
  65.4489975  77.2320023  63.0999985  66.9229965  75.9720001  64.0520020
  66.8840027  74.9749985  63.0579987  66.3919983  75.3389969  62.3180008
  67.8369980  76.8300018  66.1259995  68.4810028  76.7030029  66.9840012
  67.7710037  75.8239975  65.1549988  68.3799973  74.9380035  65.2539978
  69.5690002  79.4850006  66.8479996  70.0719986  78.9410019  67.8349991
  70.2030029  79.4980011  65.6669998  69.8710022  80.0619965  64.9160004
  71.1549988  78.4739990  65.3010025  71.1389999  77.6610031  66.0120010
  70.7419968  77.9349976  63.9090004  70.8700027  78.7389984  63.1539993
  69.6610031  77.6790009  63.9519997  71.5070038  76.6900024  63.4560013
  71.4509964  75.9219971  64.2570038  72.5729980  76.9690018  63.3160019
  70.9840012  76.0879974  62.1389999  71.0609970  76.8720016  61.3559990
  69.9130020  75.8140030  62.2430000  71.7949982  74.8519974  61.7319984
  71.5009995  73.9589996  62.3219986  72.8730011  75.0540009  61.9119987
  71.6490021  74.5469971  60.2989998  71.7480011  75.4250031  59.7500000
  70.7429962  74.0910034  60.0709991  72.4530029  73.9380035  60.0460014
  72.5729980  79.0130005  65.2399979  73.5159988  78.3949966  65.7300034
  72.7710037  80.2080002  64.6600037  72.0019989  80.6989975  64.2570038
  74.0910034  80.7669983  64.4619980  74.8389969  80.0299988  64.7129974
  74.3499985  81.1740036  62.9920006  75.3779984  81.5749969  62.8629990
  73.6190033  81.9410019  62.6609993  74.2310028  79.9520035  62.1250000
  75.2080002  78.9400024  62.1860008  76.0550003  79.0530014  62.8470001
  75.0839996  77.7779999  61.4099998  75.8300018  77.0000000  61.4760017
  73.9840012  77.6299973  60.5600014  73.8030014  76.4700012  59.7910004
  74.5559998  75.8889999  59.9169998  73.1419983  79.7929993  61.2540016
  72.3750000  80.5520020  61.2029991  73.0199966  78.6380005  60.4780006
  72.1679993  78.5189972  59.8250008  74.3349991  81.9410019  65.3899994
  73.6429977  82.9609985  65.3720016  75.3580017  81.7860031  66.2580032
  75.8389969  80.9130020  66.2939987  75.8529968  82.7939987  67.1770020
  75.0260010  83.1159973  67.7929993  76.9110031  82.1230011  68.0889969
  77.7020035  81.6819992  67.4459991  76.4100037  81.2809982  68.6129990
  77.5739975  83.0309982  69.1449966  76.7819977  83.6050034  69.6709976
  78.2300034  83.7689972  68.6360016  78.3769989  82.2639999  70.2220001
  77.6770020  81.6679993  70.8470001  78.9380035  82.9550018  70.8880005
  79.3209991  81.3030014  69.5739975  79.1770020  80.3150024  69.6330032
  80.3160019  81.6149979  68.7720032  80.8150024  82.7969971  68.5230026
  80.5530014  83.5999985  69.0579987  81.6200027  82.7210007  67.9349976
  80.8560028  80.6679993  68.0579987  81.3430023  81.0619965  67.2789993
  80.2860031  79.8489990  67.9919968  76.3639984  84.0520020  66.4649963
  76.0849991  85.1819992  66.8720016  77.0729980  83.8669968  65.3300018
  77.3379974  82.9449997  65.0589981  77.3420029  84.9130020  64.3580017
  77.4140015  85.8639984  64.8639984  78.7020035  84.6139984  63.6609993
  78.6589966  83.5940018  63.2249985  79.5100021  84.6279984  64.4240036
  79.0849991  85.5759964  62.5460014  78.4560013  86.6510010  62.3769989
  80.0999985  85.2929993  61.8540001  76.1750031  84.9980011  63.3600006
  75.8840027  84.0479965  62.6310005  75.4570007  86.1429977  63.2929993
  75.7020035  86.9280014  63.8549995  74.2720032  86.2480011  62.4420013
  73.7490005  85.3050003  62.5019989  73.2340012  87.3130035  62.8969994
  72.9110031  87.0780029  63.9339981  72.3410034  87.2170029  62.2439995
  73.7089996  88.6650009  62.8370018  74.3320007  88.8030014  63.5540009
  74.5780029  86.4479980  60.9640007  73.7190018  86.2220001  60.1110001
  75.8249969  86.8150024  60.5979996  76.5210037  86.9749985  61.2929993
  76.2649994  86.9100037  59.2130013  75.6220016  87.6149979  58.7080002
  77.7279968  87.4150009  59.1339989  78.0680008  87.4209976  58.0760002
  78.3720016  86.6989975  59.6889992  77.9209976  88.8379974  59.7060013
  77.4749985  88.8990021  60.7210007  77.3679962  89.5550003  59.0620003
  79.3850021  89.2910004  59.7960014  79.4430008  90.3349991  60.1730003
  79.8909988  89.2129974  58.8089981  80.0329971  88.3619995  60.7649994
  79.4800034  87.6500015  61.1980019  81.2200012  88.5159988  61.3260002
  82.0400009  89.5070038  61.0730019  81.7890015  90.1890030  60.3860016
  82.9209976  89.5569992  61.5449982  81.5439987  87.5899963  62.1949997
  80.9449997  86.7890015  62.1899986  82.4049988  87.6009979  62.7029991
  76.1520004  85.5820007  58.4659996  75.7080002  85.5169983  57.3190002
  76.5179977  84.4779968  59.1500015  76.8809967  84.5859985  60.0719986
  76.3870010  83.1100006  58.6839981  76.9499969  83.0120010  57.7680016
  76.9929962  82.1780014  59.7700005  76.4879990  82.4049988  60.7330017
  78.0640030  82.4410019  59.9020004  76.8580017  80.6520004  59.5419998
  75.7979965  80.3649979  59.3790016  77.2020035  80.1320038  60.4609985
  77.6940002  80.1070023  58.3889999  77.5739975  78.8759995  58.1329994
  78.4580002  80.8619995  57.7249985  74.9479980  82.7020035  58.3639984
  74.6480026  82.1179962  57.3190002  74.0000000  83.0630035  59.2550011
  74.2699966  83.5279999  60.0940018  72.5780029  82.8919983  59.0439987
  72.3759995  81.8450012  58.8769989  71.8349991  83.3750000  60.2970009
  72.0459976  84.4430008  60.5180016  72.1309967  82.7710037  61.1819992
  70.7399979  83.2649994  60.1459999  72.0189972  83.6620026  57.8530006
  71.2969971  83.1149979  57.0180016  72.3809967  84.9560013  57.7319984
  72.9319992  85.3850021  58.4440002  72.0039978  85.8059998  56.6160011
  70.9270020  85.7710037  56.5369987  72.3919983  87.2639999  56.8460007
  73.4629974  87.3219986  57.1349983  72.1709976  88.1100006  55.5760002
  71.1299973  87.9960022  55.2070007  72.8730011  87.8249969  54.7630005
  72.3450012  89.1839981  55.8019981  71.5309982  87.8280029  57.9939995
  71.6949997  87.2679977  58.9399986  70.4520035  87.7730026  57.7319984
  71.7880020  88.8929977  58.1759987  72.5299988  85.2929993  55.2820015
  71.8000031  85.2480011  54.2929993  73.7979965  84.8330002  55.2290001
  74.3939972  84.9100037  56.0250015  74.3899994  84.2279968  54.0519981
  74.3629990  84.9550018  53.2529984  75.8700027  83.8820038  54.3989983
  75.8870010  83.1979980  55.2739983  76.3970032  84.8170013  54.6899986
  76.6539993  83.2369995  53.2690010  76.3639984  83.4909973  52.0740013
  77.6490021  82.5199966  53.5639992  73.6070023  82.9960022  53.5680008
  73.2369995  82.8789978  52.3989983  73.2549973  82.0780029  54.4910011
  73.5640030  82.1780014  55.4329987  72.3939972  80.9479980  54.1980019
  72.8359985  80.4160004  53.3680000  72.3590012  79.9800034  55.4029999
  71.5800018  79.2009964  55.2589989  72.0999985  80.5619965  56.3129997
  73.7109985  79.2659988  55.6110001  74.5299988  80.0159988  55.5680008
  73.8690033  78.5469971  54.7789993  73.8079987  78.5370026  56.9510002
  73.0139999  77.7669983  57.0600014  73.7040024  79.2639999  57.7849998
  75.1760025  77.9390030  57.0289993  75.9209976  78.4739990  57.4259987
  75.4160004  76.6399994  57.1049995  74.5970001  75.6940002  56.7249985
  73.7009964  75.9240036  56.3440018  74.9130020  74.7480011  56.7939987
  76.5449982  76.2939987  57.6800003  76.4160004  75.5390015  58.3230019
  77.0589981  77.0859985  58.0089989  70.9860001  81.3089981  53.7369995
  70.4940033  80.7750015  52.7430000  70.3219986  82.2710037  54.4129982
  70.7279968  82.6809998  55.2260017  69.0279999  82.7919998  54.0139999
  68.3379974  81.9629974  53.9620018  68.5309982  83.8059998  55.0620003
  69.2399979  84.6559982  55.1599998  68.4459991  83.3089981  56.0519981
  67.5309982  84.2050018  54.7900009  69.0309982  83.4410019  52.6329994
  68.1689987  83.1709976  51.7970009  70.0540009  84.2620010  52.3390007
  70.7170029  84.4940033  53.0470009  70.2689972  84.8830032  51.0499992
  69.3980026  85.4739990  50.8069992  71.5410004  85.7659988  51.0870018
  71.8909988  86.0059967  50.0610008  72.3580017  85.2300034  51.6170006
  71.2639999  87.0930023  51.7879982  70.1470032  87.4530029  52.1619987
  72.3440018  87.8990021  51.9329987  72.1709976  88.8460007  52.2010002
  73.2470016  87.5879974  51.6389999  70.4100037  83.8779984  49.9160004
  69.7819977  84.0360031  48.8740005  71.1910019  82.7949982  50.1049995
  71.7200012  82.6989975  50.9449997  71.3119965  81.7160034  49.1409988
  71.6640015  82.1449966  48.2150002  72.3600006  80.6760025  49.6069984
  72.3619995  79.8030014  48.9199982  72.0650024  80.3180008  50.6170006
  73.8010025  81.2249985  49.6580009  73.7880020  82.2460022  50.0960007
  74.1999969  81.3239975  48.6259995  74.7350006  80.3410034  50.4920006
  74.9160004  79.3619995  49.9980011  74.2850037  80.1529999  51.4900017
  75.9990005  81.1050034  50.7099991  75.9729996  81.9729996  51.2039986
  77.2220001  80.7600021  50.3450012  77.5130005  79.7320023  49.5849991
  76.7689972  79.2200012  49.1559982  78.4619980  79.5719986  49.3160019
  78.1839981  81.5230026  50.8170013  77.8919983  82.1930008  51.5000000
  79.1439972  81.2969971  50.6539993  69.9940033  81.0029984  48.8250008
  69.6660004  80.7399979  47.6669998  69.1800003  80.6989975  49.8590012
  69.4680023  80.8949966  50.7929993  67.8479996  80.1269989  49.7000008
  67.9380035  79.2139969  49.1290016  67.2269974  79.7959976  51.0629997
  67.2470016  80.7129974  51.6899986  65.7580032  79.3359985  50.9220009
  65.6859970  78.4840012  50.2120018  65.0989990  80.1600037  50.5730019
  65.3639984  79.0000000  51.9049988  68.0589981  78.7190018  51.7939987
  69.1399994  78.9029999  51.6139984  67.8180008  77.7210007  51.3709984
  67.8430023  78.7269974  53.3110008  66.7669983  78.5979996  53.5530014
  68.1790009  79.6949997  53.7400017  68.4179993  77.9079971  53.7939987
  66.9049988  81.0390015  48.9280014  66.2180023  80.6250000  47.9900017
  66.8639984  82.3280029  49.3059998  67.3960037  82.6380005  50.0909996
  66.0469971  83.3290024  48.6629982  65.0439987  82.9329987  48.5989990
  65.9670029  84.5930023  49.5519981  65.4219971  85.4079971  49.0289993
  67.0029984  84.9420013  49.7500000  65.2669983  84.3339996  50.9129982
  65.6880035  83.4089966  51.3610001  65.5459976  85.4670029  51.9109993
  65.0449982  86.4020004  51.5820007  66.6380005  85.6490021  51.9980011
  65.1600037  85.1949997  52.9169998  63.7509995  84.1250000  50.7709999
  63.5229988  83.2659988  50.1040001  63.2739983  85.0380020  50.3540001
  63.2960014  83.9219971  51.7639999  66.4479980  83.6399994  47.2220001
  65.6039963  83.6250000  46.3279991  67.7539978  83.8560028  46.9459991
  68.4290009  83.8249969  47.6790009  68.2720032  84.2570038  45.6409988
  67.6890030  85.1179962  45.3479996  69.7170029  84.7450027  45.7220001
  69.8010025  85.3580017  46.6440010  70.7320023  83.5930023  45.8100014
  70.7990036  83.0319977  44.8530006  70.4459991  82.8870010  46.6189995
  71.7369995  84.0039978  46.0429993  70.0400009  85.6589966  44.5260010
  69.3089981  86.4929962  44.4539986  70.0230026  85.0780029  43.5800018
  71.0550003  86.0940018  44.6450005  68.0820007  83.2129974  44.5429993
  67.8410034  83.5400009  43.3769989  68.1480026  81.9120026  44.9049988
  68.3880005  81.6920013  45.8470001  67.9319992  80.7870026  44.0130005
  68.6370010  80.8769989  43.1990013  68.1460037  79.4349976  44.7519989
  67.6849976  78.5999985  44.1819992  67.6800003  79.4800034  45.7599983
  69.6289978  79.0920029  44.8849983  70.5270004  79.7180023  44.3170013
  69.9100037  78.0000000  45.6370010  70.8580017  77.6869965  45.6829987
  69.1760025  77.5009995  46.0979996  66.5559998  80.7659988  43.3460007
  66.4349976  80.3519974  42.1949997  65.4810028  81.1849976  44.0439987
  65.5950012  81.5820007  44.9519997  64.1259995  81.0459976  43.5279999
  64.1539993  80.7959976  42.4780006  63.3250008  79.9339981  44.2620010
  62.3619995  79.7760010  43.7319984  63.0960007  80.2330017  45.3069992
  64.0630035  78.5989990  44.2659988  63.9179993  77.7829971  43.3520012
  64.8190002  78.3140030  45.3549995  65.2529984  77.4140015  45.4039993
  64.9319992  78.9860001  46.0859985  63.3489990  82.3610001  43.6080017
  62.1599998  82.3769989  43.9319992  63.9970016  83.5090027  43.3149986
  64.9670029  83.5000000  43.0839996  63.3330002  84.8069992  43.3219986
  62.9609985  84.9219971  44.3289986  64.2990036  85.9899979  43.0480003
  63.7229996  86.9359970  42.9580002  64.8079987  85.8190002  42.0750008
  65.3580017  86.2259979  44.1399994  65.9179993  85.2760010  44.2770004
  66.3539963  87.3109970  43.7120018  65.8290024  88.2779999  43.5559998
  66.8629990  87.0329971  42.7649994  67.1269989  87.4570007  44.4959984
  64.7229996  86.6119995  45.4830017  64.1110001  85.7750015  45.8829994
  64.0729980  87.5039978  45.3639984  65.5110016  86.8430023  46.2319984
  62.1590004  84.9479980  42.3370018  62.2509995  84.4889984  41.1910019
  61.0540009  85.5930023  42.7150002  60.6290016  85.7639999  44.1030006
  61.2200012  86.5869980  44.5589981  60.7599983  84.8270035  44.6850014
  60.1370010  86.2490005  41.7890015  59.6889992  85.4619980  41.2000008
  59.1250000  86.9639969  42.6990013  58.1139984  86.9960022  42.2400017
  59.4539986  88.0000000  42.9249992  59.1570015  86.1470032  43.9900017
  58.8009987  86.7139969  44.8769989  58.5419998  85.2310028  43.8650017
  60.7849998  87.2200012  40.8059998  61.8499985  87.7789993  41.0820007
  60.1399994  87.4520035  39.6510010  59.3289986  86.9140015  39.4350014
  60.5449982  88.4420013  38.6730003  61.5379982  88.1709976  38.3489990
  59.6170006  88.4189987  37.4280014  59.8370018  89.2870026  36.7700005
  58.5690002  88.5199966  37.7840004  59.7639999  87.1340027  36.5830002
  59.6990013  86.2470016  37.2500000  60.7570000  87.1200027  36.0859985
  58.6790009  87.0149994  35.5089989  58.0270004  87.9820023  35.1049995
  58.4749985  85.7720032  35.0130005  57.7840004  85.6449966  34.3009987
  59.0050011  85.0059967  35.3769989  60.6329994  89.8730011  39.2070007
  59.7200012  90.3880005  39.8559990  61.7599983  90.5589981  38.9179993
  62.4879990  90.1110001  38.4049988  61.9640007  91.9649963  39.2570000
  61.0530014  92.5080032  39.0519981  62.7879982  92.3190002  38.6549988
  62.3349991  92.2460022  40.6949997  62.2980003  93.3949966  41.1320000
  62.7389984  91.2239990  41.4739990  62.7130013  90.2880020  41.1320000
  63.2709999  91.4300003  42.8139992  62.7019997  92.2170029  43.2879982
  63.1500015  90.2040024  43.7179985  63.6510010  89.3339996  43.2400017
  63.7960014  90.4649963  45.0950012  63.3569984  91.3710022  45.5649986
  64.8960037  90.5970001  45.0190010  63.6110001  89.6060028  45.7750015
  61.6580009  89.8809967  43.9049988  61.1710014  89.6439972  42.9350014
  61.1329994  90.7470016  44.3610001  61.5349998  89.0039978  44.5760002
  64.7180023  91.9010010  42.7389984  65.5910034  91.2249985  42.1889992
  65.0000000  93.1039963  43.2799988  64.2710037  93.6299973  43.7109985
  66.3320007  93.6819992  43.2760010  66.9919968  93.1070023  42.6440010
  66.3020020  95.1409988  42.7430000  67.3190002  95.5759964  42.8460007
  65.6060028  95.7470016  43.3610001  65.8889999  95.2389984  41.2490005
  64.8489990  94.8659973  41.1349983  66.5550003  94.5950012  40.6360016
  65.9469986  96.6549988  40.6720009  65.4209976  96.8499985  39.5390015
  66.4860001  97.5910034  41.3180008  66.9449997  93.6709976  44.6710014
  68.1500015  93.8669968  44.8409996  66.1360016  93.3860016  45.7109985
  65.1630020  93.2220001  45.5719986  66.6039963  93.4000015  47.0779991
  67.6750031  93.2590027  47.0979996  66.2870026  94.7580032  47.7560005
  65.1999969  94.9599991  47.6529999  66.8280029  95.5439987  47.1870003
  66.6880035  94.8519974  49.2379990  67.7190018  94.4550018  49.3580017
  66.0149994  94.2170029  49.8540001  66.6630020  96.2959976  49.7799988
  67.4270020  96.8880005  49.2330017  66.9629974  96.2559967  50.8489990
  65.2979965  96.9980011  49.6819992  64.5380020  96.4169998  50.2480011
  64.9739990  97.0930023  48.6240005  65.3639984  98.3590012  50.2690010
  66.0179977  98.9670029  49.7369995  65.7009964  98.2990036  51.2509995
  64.4250031  98.8059998  50.2739983  66.0230026  92.2580032  47.8880005
  64.8190002  91.9990005  47.8940010  66.8960037  91.5459976  48.6180000
  67.8690033  91.7610016  48.5859985  66.5100021  90.5569992  49.6030006
  65.4720001  90.2880020  49.4749985  67.3379974  89.2779999  49.5000000
  68.4110031  89.5569992  49.4339981  67.1419983  88.3919983  50.7500000
  66.0599976  88.2070007  50.9220009  67.5749969  88.8649979  51.6570015
  67.6500015  87.4130020  50.6189995  66.9580002  88.5070038  48.2109985
  66.8499985  89.2239990  47.3689995  65.9670029  88.0270004  48.3590012
  67.9950027  87.4550018  47.8059998  68.1080017  86.6760025  48.5900002
  68.9830017  87.9369965  47.6469994  67.6969986  86.9540024  46.8600006
  66.6380005  91.2149963  50.9650002  67.6500015  91.8379974  51.2890015
  65.5800018  91.1380005  51.7849998  64.7570038  90.6529999  51.5009995
  65.5309982  91.7740021  53.0849991  66.4729996  92.2500000  53.3149986
  64.4130020  92.8460007  53.1329994  63.4269981  92.3730011  52.9350014
  64.6090012  93.5780029  52.3209991  64.3870010  93.5370026  54.3839989
  63.6959991  94.2020035  54.3429985  65.2799988  90.7180023  54.1459999
  64.2529984  90.0390015  54.1380005  66.2310028  90.5360031  55.0820007
  67.0589981  91.0910034  55.0509987  66.1380005  89.5449982  56.1430016
  65.2500000  88.9449997  56.0149994  67.3290024  88.5800018  56.1710014
  68.2779999  89.1579971  56.1959991  67.2770004  87.6589966  57.4099998
  66.2910004  87.1510010  57.4749985  67.4489975  88.2229996  58.3520012
  68.0640030  86.8769989  57.3370018  67.3069992  87.7279968  54.8860016
  67.3929977  88.3639984  53.9790001  66.3619995  87.1480026  54.8230019
  68.1569977  87.0130005  54.8829994  66.0019989  90.2559967  57.4799995
  66.9400024  90.8799973  57.9809990  64.8140030  90.1790009  58.1040001
  64.0660019  89.6839981  57.6679993  64.5360031  90.8239975  59.3829994
  65.2720032  91.5940018  59.5629997  63.1640015  91.4860001  59.4930000
  62.3629990  90.7170029  59.4669991  62.9220009  92.3720016  58.4099998
  63.5299988  93.1050034  58.5299988  63.0460014  92.3050003  60.7910004
  63.8510017  93.0680008  60.8409996  63.1199989  91.6549988  61.6889992
  62.0660019  92.8280029  60.8279991  64.6409988  89.8069992  60.4959984
  63.8919983  88.8300018  60.5569992  65.5859985  90.0110016  61.4290009
  66.1460037  90.8359985  61.3930016  65.8249969  89.0989990  62.5270004
  65.5859985  88.0960007  62.2050018  67.3140030  89.1179962  62.9650002
  67.4509964  88.3399963  63.7459984  67.5630035  90.0989990  63.4210014
  68.2900009  88.8470001  61.7910004  68.3349991  89.7220001  61.1090012
  67.9229965  87.9800034  61.2010002  69.6900024  88.4800034  62.2970009
  69.8990021  87.3949966  62.8470001  70.6800003  89.3820038  62.0999985
  71.6029968  89.1449966  62.4049988  70.5000000  90.2330017  61.6069984
  64.9290009  89.4349976  63.7130013  64.8030014  90.5940018  64.1139984
  64.2679977  88.4169998  64.2919998  64.3310013  87.4940033  63.9220009
  63.3650017  88.5670013  65.4160004  63.3059998  89.6090012  65.6959991
  61.9360008  88.0920029  65.0500031  61.3069992  88.0159988  65.9619980
  62.0060005  87.0770035  64.6039963  61.2159996  89.0350037  64.0680008
  61.9049988  89.3290024  63.2480011  60.9350014  89.9570007  64.6200027
  59.9550018  88.3960037  63.4490013  59.3600006  87.9319992  64.2649994
  60.2849998  87.5830002  62.7680016  59.0690002  89.4059982  62.6980019
  59.6780014  89.9990005  61.9830017  58.5950012  90.1009979  63.4239998
  57.9939995  88.7170029  61.9309998  57.5200005  87.9950027  62.5099983
  58.3940010  88.2649994  61.0839996  57.2779999  89.4010010  61.6129990
  63.8660011  87.8199997  66.6449966  64.4499969  86.7399979  66.5469971
  63.6599998  88.3949966  67.8440018  63.1879997  89.2699966  67.9089966
  64.0059967  87.7490005  69.0940018  64.0490036  86.6800003  68.9479980
  65.3590012  88.2549973  69.6520004  65.2779999  89.3430023  69.8600006
  66.1269989  88.1340027  68.8580017  65.8529968  87.5390015  70.9270020
  65.0859985  87.6419983  71.7239990  66.7649994  88.0680008  71.2760010
  66.2200012  86.0630035  70.7220001  67.0299988  85.9970016  69.9639969
  65.3420029  85.4720001  70.3830032  66.6669998  85.5390015  72.0550003
  66.0869980  85.7149963  72.8509979  67.6849976  84.7160034  72.2750015
  68.4380035  84.2259979  71.3130035  68.2320023  84.4700012  70.3649979
  69.2160034  83.6439972  71.5469971  67.9680023  84.3669968  73.5159988
  67.4550018  84.7699966  74.2740021  68.7429962  83.7610016  73.6979980
  62.8940010  88.0120010  70.0970001  62.5209999  89.1569977  70.3619995
  62.3209991  86.9290009  70.6600037  62.6459999  86.0220032  70.4039993
  61.1430016  86.9169998  71.5100021  60.8250008  85.8860016  71.5449982
  61.4589996  87.3550034  72.9680023  60.5320015  87.2460022  73.5699997
  61.7430000  88.4290009  72.9759979  62.5750008  86.5360031  73.6679993
  62.5789986  86.7590027  74.7559967  63.5530014  86.8629990  73.2539978
  62.4529991  85.0230026  73.4729996  63.3540001  84.4160004  72.8330002
  61.4729996  84.4189987  73.9909973  59.9529991  87.6920013  70.9189987
  59.3429985  88.5510025  71.5589981  59.6549988  87.4120026  69.6230011
  60.1879997  86.7020035  69.1709976  58.6199989  88.0370026  68.7990036
  58.5379982  87.4089966  67.9240036  57.1910019  88.0979996  69.4120026
  56.5340004  88.6890030  68.7389984  57.2029991  88.6220016  70.3909988
  56.6879997  85.9219971  70.6370010  57.2220001  86.1129990  71.4609985
  56.5239983  86.7549973  69.5530014  55.8190002  84.8929977  70.4789963
  55.7449989  84.0800018  71.2009964  55.0859985  85.0159988  69.3840027
  55.5299988  86.1949997  68.8000031  55.0730019  86.5680008  67.8919983
  59.0139999  89.4039993  68.2490005  58.7519989  89.7180023  67.0859985
  59.6580009  90.2450027  69.0759964  59.8499985  89.9410019  70.0059967
  60.1329994  91.5699997  68.7259979  59.2770004  92.1380005  68.3929977
  60.7400017  92.2740021  69.9639969  61.0540009  93.3020020  69.6819992
  61.6459999  91.7129974  70.2779999  59.7849998  92.3649979  71.1689987
  59.5589981  91.3410034  71.5350037  58.8240013  92.8030014  70.8209991
  60.4300003  93.3639984  72.5449982  61.7169991  92.2109985  73.0999985
  62.5029984  92.0759964  72.3270035  61.2869987  91.2109985  73.3239975
  62.2099991  92.5810013  74.0240021  61.1640015  91.5869980  67.5889969
  62.0579987  90.7409973  67.5090027  61.0690002  92.5719986  66.6709976
  60.3750000  93.2839966  66.7440033  61.9830017  92.6839981  65.5540009
  62.3160019  91.6959991  65.2720032  61.2799988  93.3010025  64.3320007
  60.9630013  94.3450012  64.5419998  60.3759995  92.7099991  64.0709991
  61.9570007  93.3040009  63.4500008  63.2239990  93.4919968  65.9240036
  63.1489983  94.5709991  66.5169983  64.4150009  92.9550018  65.5950012
  64.4609985  92.0869980  65.1050034  65.6780014  93.4970016  66.0530014
  65.5029984  94.2030029  66.8509979  66.5790024  92.3570023  66.6050034
  67.6050034  92.7340012  66.8020020  66.6600037  91.5449982  65.8509979
  66.0279999  91.7689972  67.9169998  66.6640015  90.9140015  68.2310028
  65.0130005  91.3590012  67.7269974  65.9639969  93.0029984  69.2500000
  64.4000015  92.4400024  69.9680023  64.4700012  91.3870010  70.3150024
  63.5810013  92.5019989  69.2200012  64.1139984  93.0690002  70.8379974
  66.4219971  94.2829971  64.9980011  66.7969971  95.4339981  65.2129974
  66.6669998  93.6770020  63.8260002  66.3280029  92.7580032  63.6419983
  67.4820023  94.2870026  62.7929993  67.3089981  95.3529968  62.7939987
  68.9779968  94.0370026  63.0270004  69.2500000  94.5279999  63.9860001
  69.2870026  92.5329971  63.1650009  69.0120010  91.9830017  62.2389984
  68.7440033  92.0849991  64.0240021  70.3730011  92.3850021  63.3440018
  69.8420029  94.6610031  61.9169998  69.5780029  95.7300034  61.7669983
  69.7160034  94.1240005  60.9529991  70.9169998  94.6029968  62.1940002
  67.0250015  93.7839966  61.4379997  66.6320038  92.6279984  61.2919998
  67.0609970  94.6429977  60.4049988  67.3690033  95.5830002  60.5299988
  66.7969971  94.2610016  59.0270004  66.4300003  93.2470016  58.9830017
  65.7750015  95.1500015  58.3209991  65.9010010  96.2009964  58.6580009
  64.4619980  94.6910019  58.6329994  63.8540001  95.1959991  58.0880013
  65.8840027  95.0889969  56.7900009  65.8529968  94.0339966  56.4449997
  66.8239975  95.5579987  56.4290009  65.0469971  95.6399994  56.3100014
  68.0989990  94.2689972  58.2659988  68.8020020  95.2750015  58.2029991
  68.4710007  93.1299973  57.6580009  67.9059982  92.3130035  57.7410011
  69.6389999  93.0439987  56.7949982  70.2959976  93.8799973  56.9850006
  70.4720001  91.7789993  56.9469986  69.9300003  90.8779984  56.5880013
  70.8160019  91.5640030  58.3110008  70.0039978  91.3860016  58.7910004
  71.7860031  91.9499969  56.1699982  72.2539978  92.9300003  56.4070015
  71.6100006  91.8970032  55.0750008  72.5070038  91.1529999  56.4500008
  69.1800003  93.1210022  55.3590012  68.5019989  92.2259979  54.8520012
  69.5429993  94.2089996  54.6640015  70.1070023  94.9120026  55.0900002
  69.2340012  94.4199982  53.2680016  68.3560028  93.8560028  52.9910011
  69.0039978  95.9219971  52.9599991  68.8679962  96.0469971  51.8650017
  69.9089966  96.4970016  53.2509995  67.7829971  96.5270004  53.6910019
  67.9909973  96.5830002  54.7809982  66.8939972  95.8779984  53.5400009
  67.4619980  97.9349976  53.1949997  66.3020020  98.1699982  52.7560005
  68.3590012  98.8190002  53.2179985  70.3970032  93.9489975  52.4189987
  71.5339966  94.3629990  52.6370010  70.1470032  93.0709991  51.4319992
  69.2300034  92.7020035  51.3069992  71.1750031  92.5780029  50.5219994
  72.0930023  93.1269989  50.6679993  71.4860001  91.0960007  50.6899986
  70.6090012  90.4710007  50.4189987  71.8339996  90.8170013  52.0439987
  71.0640030  91.0309982  52.5750008  72.6959991  90.7030029  49.8349991
  73.5699997  91.3420029  50.0830002  72.4759979  90.8069992  48.7519989
  72.9769974  89.6429977  50.0169983  70.7340012  92.8040009  49.0909996
  69.6579971  92.3730011  48.6699982  71.5619965  93.5039978  48.2919998
  72.4169998  93.8759995  48.6469994  71.3880005  93.6569977  46.8619995
  70.4049988  94.0650024  46.6819992  72.4570007  94.6640015  46.3569984
  73.4240036  94.3539963  46.8069992  72.2139969  95.6849976  46.7229996
  72.6279984  94.7030029  44.8440018  71.6250000  94.9400024  44.1199989
  73.7809982  94.5049973  44.3709984  71.4660034  92.3199997  46.1100006
  72.4240036  91.5559998  46.2519989  70.4560013  92.0149994  45.2750015
  69.6900024  92.6439972  45.1629982  70.4290009  90.8130035  44.4599991
  70.5719986  89.9739990  45.1240005  69.0609970  90.6360016  43.7989998
  68.7689972  91.5859985  43.3019981  69.0540009  89.5179977  42.7360001
  69.4209976  88.5619965  43.1669998  69.6809998  89.7819977  41.8580017
  68.0179977  89.3560028  42.3670006  68.0350037  90.3109970  44.9010010
  67.9919968  91.1119995  45.6699982  68.2979965  89.3570023  45.4049988
  67.0240021  90.2020035  44.4550018  71.5630035  90.7160034  43.4389992
  72.1849976  89.6650009  43.2869987  71.8799973  91.8109970  42.7130013
  71.4359970  92.6859970  42.8899994  72.8809967  91.7939987  41.6629982
  72.6039963  91.0220032  40.9609985  72.8720016  93.1500015  40.9319992
  73.1470032  93.9749985  41.6240005  71.8560028  93.3590012  40.5330009
  73.5849991  93.1490021  40.0789986  74.3040009  91.4729996  42.1269989
  74.9660034  90.5849991  41.5839996  74.7979965  92.1500015  43.1839981
  74.2850037  92.9069977  43.5800018  76.0699997  91.8249969  43.8190002
  76.8000031  91.7679977  43.0250015  76.6080017  92.9079971  44.7949982
  76.8479996  93.8170013  44.2029991  77.5490036  92.5680008  45.2770004
  75.6529999  93.2639999  45.7890015  74.9580002  93.7229996  45.3120003
  76.1019974  90.4580002  44.4809990  77.1019974  89.7460022  44.3839989
  75.0039978  90.0319977  45.1419983  74.2229996  90.6399994  45.2659988
  74.8700027  88.6959991  45.6990013  75.6780014  88.5419998  46.3989983
  73.5189972  88.5839996  46.4490013  72.7040024  88.8629990  45.7470016
  73.5139999  89.3369980  47.2659988  73.1709976  87.2109985  47.0589981
  73.1890030  86.4390030  46.2599983  74.1699982  86.7979965  48.1500015
  74.1959991  87.5579987  48.9609985  75.1930008  86.6979980  47.7270012
  73.8809967  85.8190002  48.5900002  71.7419968  87.2470016  47.6129990
  71.0319977  87.5640030  46.8190002  71.6660004  87.9609985  48.4609985
  71.4380035  86.2369995  47.9630013  74.9749985  87.5859985  44.6590004
  75.7559967  86.6460037  44.8089981  74.2490005  87.7139969  43.5270004
  73.5970001  88.4629974  43.4319992  74.3679962  86.8199997  42.3940010
  74.1709976  85.8180008  42.7449989  73.3249969  87.1579971  41.2980003
  73.5950012  86.6360016  40.3549995  73.3450012  88.2509995  41.0970001
  71.8909988  86.7129974  41.6559982  71.5550003  87.2369995  42.5760002
  71.9229965  85.6240005  41.8759995  70.8870010  86.9800034  40.5260010
  71.2630005  86.5589981  39.5690002  70.7289963  88.0749969  40.4189987
  69.6019974  86.2959976  40.8820000  69.6129990  85.5429993  41.5400009
  68.4739990  86.4469986  40.2050018  68.3000031  87.3280029  39.2470016
  69.0360031  87.9499969  38.9790001  67.3980026  87.3209991  38.8149986
  67.4309998  85.6819992  40.4500008  67.4720001  84.9589996  41.1399994
  66.6330032  85.8580017  39.8730011  75.7600021  86.7799988  41.7799988
  76.3050003  85.7109985  41.5130005  76.3909988  87.9550018  41.5820007
  75.9179993  88.8119965  41.7700005  77.7509995  88.0640030  41.0900002
  77.7979965  87.5459976  40.1440010  78.0869980  89.5540009  40.8450012
  77.9789963  90.1220016  41.7929993  77.3259964  89.9489975  40.1389999
  79.4840012  89.8170013  40.2560005  79.6380005  89.1340027  39.3940010
  80.2669983  89.5930023  41.0120010  79.6299973  91.2740021  39.7709999
  79.5400009  91.9499969  40.6479988  78.7819977  91.4919968  39.0880013
  80.9530029  91.5459976  39.0359993  81.0500031  90.8629990  38.1660004
  81.8150024  91.3860016  39.7179985  81.0059967  92.9420013  38.5379982
  81.0199966  93.6100006  39.3349991  80.1790009  93.1610031  37.9449997
  81.8639984  93.1009979  37.9729996  78.7959976  87.4120026  41.9959984
  79.6589966  86.6589966  41.5379982  78.7109985  87.6429977  43.3230019
  78.0329971  88.2829971  43.6759987  79.5459976  86.9840012  44.3100014
  80.5749969  87.1679993  44.0379982  79.3099976  87.6029968  45.7169991
  78.2149963  87.6589966  45.8940010  79.6920013  88.6460037  45.6910019
  79.9530029  86.8209991  46.8899994  81.0270004  86.6299973  46.6780014
  79.4489975  85.8399963  47.0239983  79.8339996  87.5680008  48.2210007
  78.9810028  87.2689972  49.0610008  80.7350006  88.5530014  48.4440002
  80.7200012  89.0179977  49.3289986  81.4250031  88.7649994  47.7509995
  79.3919983  85.4660034  44.3670006  80.3769989  84.7239990  44.3549995
  78.1409988  84.9649963  44.3979988  77.3539963  85.5749969  44.4519997
  77.8320007  83.5479965  44.3619995  78.4280014  83.0770035  45.1310005
  76.3450012  83.2919998  44.6940002  76.1139984  82.2190018  44.5219994
  75.7119980  83.8909988  44.0060005  75.9400024  83.6019974  46.1539993
  76.2139969  84.6529999  46.3849983  74.4199982  83.4720001  46.3149986
  74.0930023  82.4319992  46.1020012  73.9059982  84.1579971  45.6090012
  74.1129990  83.7340012  47.3499985  76.6490021  82.6930008  47.1720009
  77.7490005  82.8430023  47.1450005  76.4280014  81.6250000  46.9589996
  76.2969971  82.9240036  48.2000008  78.2279968  82.8300018  43.0690002
  78.7730026  81.7249985  43.1040001  77.9919968  83.4509964  41.8919983
  77.4789963  84.3050003  41.8660011  78.4580002  82.9700012  40.6040001
  78.0690002  81.9729996  40.4599991  77.9349976  83.8889999  39.4819984
  78.3219986  84.9229965  39.6030006  76.8249969  83.9319992  39.5149994
  78.2369995  83.5080032  38.4830017  79.9820023  82.8820038  40.5060005
  80.5410004  81.9140015  39.9840012  80.6790009  83.9000015  41.0499992
  80.1750031  84.6760025  41.4220009  82.1279984  83.9749985  41.1380005
  82.5579987  82.9889984  41.0429993  82.3539963  84.4300003  42.0909996
  82.7350006  84.8349991  40.0589981  82.4059982  84.7450027  38.8759995
  83.6760025  85.7009964  40.4659996  83.9250031  85.7620010  41.4300003
  84.3730011  86.6510010  39.6090012  83.8010025  86.8050003  38.7060013
  84.5729980  88.0090027  40.2849998  85.2500000  88.6709976  39.7039986
  85.0699997  87.8639984  41.6170006  85.9540024  87.4929962  41.5579987
  83.2080002  88.7089996  40.3899994  82.5009995  88.1110001  41.0040016
  82.7649994  88.8509979  39.3810005  83.3259964  89.7060013  40.8660011
  85.7369995  86.1330032  39.1879997  86.3280029  85.2590027  39.8260002
  86.2939987  86.6790009  38.0849991  85.7850037  87.3190002  37.5149994
  87.6859970  86.4840012  37.7169991  87.8280029  85.4169998  37.6310005
  87.9639969  87.1250000  36.3429985  87.7990036  88.2229996  36.3779984
  87.2819977  86.6949997  35.5789986  89.0100021  86.9359970  36.0169983
  88.6640015  87.0469971  38.7669983  88.3249969  88.0400009  39.4210014
  89.8499985  86.4739990  39.0029984  90.2649994  85.1859970  38.4399986
  90.4440002  85.3079987  37.3499985  89.5019989  84.3990021  38.6209984
  90.9179993  87.0690002  39.8120003  90.6259995  86.9160004  40.8409996
  92.1569977  86.2369995  39.4570007  92.9000015  86.2170029  40.2830009
  92.6399994  86.6269989  38.5349998  91.5719986  84.8539963  39.1629982
  92.2490005  84.2190018  38.5519981  91.3430023  84.3349991  40.1180000
  91.1370010  88.5739975  39.6679993  91.3529968  89.0660019  38.5589981
  91.0869980  89.3249969  40.7900009  90.9349976  88.8809967  41.6699982
  91.2819977  90.7740021  40.8170013  92.0569992  91.0390015  40.1129990
  91.5479965  91.0419998  41.8289986  90.0589981  91.5869980  40.4609985
  90.0830002  92.8140030  40.5359993  88.9449997  90.9280014  40.0800018
  88.9619980  89.9359970  39.9840012  87.7180023  91.5910034  39.6619987
  87.8870010  92.6510010  39.5400009  87.2170029  90.9990005  38.3139992
  86.3130035  91.5619965  37.9970016  86.9150009  89.9400024  38.4550018
  88.2429962  91.0599976  37.1529999  87.7429962  90.7850037  36.2000008
  89.0469971  90.3160019  37.3390007  88.8499985  92.4560013  36.9830017
  88.1439972  93.4449997  36.7579994  90.1969986  92.5569992  37.0750008
  90.6139984  93.4599991  36.9720001  90.7460022  91.7429962  37.2620010
  86.6240005  91.4390030  40.7150002  85.4700012  91.8119965  40.4970016
  86.9670029  90.8919983  41.9010010  87.9130020  90.6110001  42.0439987
  86.0410004  90.7050018  43.0159988  85.1699982  90.1969986  42.6310005
  86.6500015  89.8010025  44.1339989  87.5820007  90.2649994  44.5200005
  86.9309998  88.8330002  43.6669998  85.7480011  89.5380020  45.2220001
  85.7269974  90.3150024  45.7849998  85.5609970  92.0169983  43.6230011
  86.3330002  92.7679977  44.2229996  84.2539978  92.3150024  43.4889984
  83.6510010  91.7149963  42.9710007  83.6240005  93.4639969  44.1090012
  84.3830032  94.2160034  44.2669983  82.5380020  94.0859985  43.1910019
  81.9680023  94.8509979  43.7599983  81.8229980  93.2910004  42.8889999
  83.1350021  94.7679977  41.9379997  83.6760025  94.0250015  41.3139992
  83.8679962  95.5370026  42.2639999  82.0729980  95.4390030  41.0750008
  82.1179962  96.6869965  40.9150009  81.1949997  94.7170029  40.5270004
  83.0139999  93.0780029  45.4589996  82.4769974  91.9700012  45.5740013
  83.0839996  93.8970032  46.5159988  83.6119995  95.2669983  46.4659996
  83.3539963  95.7829971  45.5169983  84.7160034  95.2200012  46.5849991
  82.3600006  93.6449966  47.7599983  82.7060013  92.7050018  48.1629982
  82.7379990  94.8379974  48.6500015  83.6930008  94.6110001  49.1689987
  81.9700012  95.0849991  49.4140015  82.9720001  95.9789963  47.6590004
  81.9960022  96.4130020  47.3499985  83.6169968  96.7839966  48.0709991
  80.8479996  93.5049973  47.5859985  80.2529984  94.1409988  46.7130013
  80.1999969  92.6660004  48.4199982  80.7119980  92.1389999  49.0940018
  78.7529984  92.5589981  48.4879990  78.3929977  92.3190002  47.4980011
  78.3550034  91.4260025  49.4729996  78.7679977  91.6669998  50.4749985
  78.8389969  90.4860001  49.1320000  76.8440018  91.1449966  49.6269989
  76.3229980  92.0800018  49.9230003  76.2360001  90.6460037  48.3129997
  76.7429962  89.7129974  47.9869995  76.3410034  91.4059982  47.5089989
  75.1539993  90.4300003  48.4420013  76.5979996  90.1110001  50.7360001
  76.9919968  90.4789963  51.7080002  77.1039963  89.1529999  50.4879990
  75.5110016  89.9140015  50.8479996  78.0950012  93.8690033  48.9189987
  78.5360031  94.5139999  49.8740005  77.0070038  94.2990036  48.2439995
  76.6480026  93.8160019  47.4500008  76.2470016  95.4530029  48.6800003
  76.8990021  96.1259995  49.2169991  75.6920013  96.2919998  47.5029984
  75.0169983  97.0800018  47.9000015  75.0960007  95.6350021  46.8339996
  76.8140030  96.9660034  46.6790009  77.5049973  96.1989975  46.2690010
  77.4039993  97.6389999  47.3370018  76.2369995  97.8170013  45.5449982
  75.7429962  98.9290009  45.7570000  76.3020020  97.2979965  44.2970009
  75.9270020  97.8310013  43.5390015  76.6760025  96.3820038  44.1559982
  75.1679993  95.0250015  49.6650009  74.0739975  94.5780029  49.3120003
  75.4940033  95.1370010  50.9620018  76.3860016  95.4960022  51.2249985
  74.6679993  94.6620026  52.0439987  73.6370010  94.6699982  51.7229996
  75.0680008  93.2210007  52.4679985  76.1719971  93.1940002  52.5880013
  74.8099976  92.5449982  51.6250000  74.4110031  92.6940002  53.7659988
  73.3059998  92.6900024  53.6559982  74.6729965  93.3349991  54.6349983
  74.8980026  91.2819977  54.1030006  75.8069992  91.0849991  54.9140015
  74.2750015  90.2639999  53.4700012  73.5059967  90.4700012  52.8650017
  74.5729980  89.3290024  53.6609993  74.7679977  95.6139984  53.2169991
  75.8410034  96.1370010  53.5250015  73.6389999  95.8769989  53.8989983
  72.7779999  95.4560013  53.6240005  73.6220016  96.7570038  55.0460014
  74.5849991  96.7089996  55.5320015  73.3570023  98.2389984  54.6590004
  74.2180023  98.5609970  54.0340004  73.3649979  98.8669968  55.5750008
  72.0520020  98.4909973  53.8629990  71.1719971  98.1780014  54.4640007
  72.0589981  97.9049988  52.9189987  71.8990021  99.9710007  53.4949989
  72.8519974 100.7570038  53.4959984  70.6559982 100.3820038  53.1570015
  69.8870010  99.7440033  53.1969986  70.5169983 101.3389969  52.9039993
  72.6159973  96.3000031  56.0849991  71.5000000  95.8840027  55.7789993
  73.0049973  96.3720016  57.3709984  73.9300003  96.6630020  57.6059990
  72.0979996  96.2009964  58.4860001  71.2669983  95.5889969  58.1699982
  72.7649994  95.4349976  59.6580009  72.2659988  95.6740036  60.6220016
  73.8199997  95.7770004  59.7299995  72.6900024  93.9059982  59.4420013
  72.9260025  93.6949997  58.3769989  71.6370010  93.5950012  59.6069984
  73.6039963  92.9879990  60.2770004  74.6760025  93.1299973  60.0229988
  73.3509979  91.9290009  60.0559998  73.3529968  93.2279968  61.7369995
  72.6549988  92.6920013  62.2109985  74.0609970  94.0569992  62.4879990
  75.0449982  94.7919998  62.0340004  75.2730026  95.5699997  62.6180000
  75.1989975  94.8420029  61.0470009  73.8040009  94.2360001  63.7599983
  73.1490021  93.6640015  64.2539978  74.3669968  94.9420013  64.1890030
  71.4950027  97.5370026  58.8950005  72.1999969  98.5039978  59.1889992
  70.1539993  97.6159973  58.8740005  69.6169968  96.8079987  58.6430016
  69.3730011  98.8209991  59.0740013  69.9909973  99.5680008  59.5489998
  68.8030014  99.4140015  57.7779999  68.2139969 100.3280029  58.0079994
  69.9609985  99.8450012  56.8540001  70.5569992  98.9639969  56.5330009
  70.6350021 100.5589981  57.3740005  69.5599976 100.3379974  55.9430008
  67.8750000  98.4079971  57.0670013  67.0000000  98.1419983  57.6969986
  68.4290009  97.4789963  56.8129997  67.4960022  98.8470001  56.1199989
  68.2379990  98.5189972  60.0410004  67.9530029  97.3649979  60.3750000
  67.5749969  99.5719986  60.5680008  67.8190002 100.5059967  60.3209991
  66.4660034  99.4300003  61.4959984  66.8519974  98.9000015  62.3540001
  65.9420013 100.8109970  61.9729996  64.9749985 100.6949997  62.5070000
  65.7460022 101.4410019  61.0800018  66.9219971 101.5530014  62.9189987
  66.5370026 102.5749969  63.1230011  67.9140015 101.6529999  62.4269981
  67.1190033 100.8580017  64.2659988  68.1039963 101.1959991  64.9749985
  66.3079987  99.9700012  64.6439972  65.3050003  98.5889969  60.9659996
  64.9440002  98.6460037  59.7879982  64.7129974  97.7480011  61.8390007
  64.9800034  97.7429962  62.7999992  63.6930008  96.7990036  61.4490013
  64.0690002  96.2590027  60.5929985  63.4609985  95.7699966  62.5709991
  63.0800018  96.2630005  63.4910011  64.4120026  95.2519989  62.8190002
  62.7229996  95.0049973  62.2459984  62.3650017  97.4400024  61.0340004
  61.6409988  98.0210037  61.8460007  62.0159988  97.3440018  59.7330017
  62.6479988  96.9420013  59.0760002  60.7350006  97.7689972  59.1959991
  60.5970001  98.7959976  59.5009995  60.7120018  97.7470016  57.6430016
  59.6780014  97.9489975  57.2900009  60.9970016  96.7350006  57.2849998
  61.6389999  98.8209991  57.0139999  62.6959991  98.6220016  57.2960014
  61.3559990  99.8140030  57.4230003  61.5719986  98.9160004  55.4860001
  62.1959991  99.8679962  54.9370003  60.9169998  98.0749969  54.8139992
  59.5390015  96.9960022  59.7529984  59.6110001  95.7979965  60.0330009
  58.3919983  97.6839981  59.9350014  58.3380013  98.6579971  59.7280006
  57.1679993  97.0559998  60.3880005  57.4230003  96.2740021  61.0870018
  56.2980003  98.0940018  61.1489983  56.0200005  98.9189987  60.4589996
  56.9070015  98.5230026  61.9729996  55.0190010  97.5319977  61.7589989
  54.7200012  96.3150024  61.6209984  54.2820015  98.3300018  62.3989983
  56.4399986  96.4039993  59.2060013  56.0369987  97.0670013  58.2470016
  56.2690010  95.0660019  59.2579994  56.6110001  94.5479965  60.0379982
  55.6790009  94.3020020  58.1759987  55.7169991  94.8720016  57.2599983
  56.4580002  92.9769974  57.9550018  56.0419998  92.4729996  57.0559998
  56.3059998  92.3030014  58.8250008  57.9830017  93.1330032  57.7309990
  58.4350014  93.5449982  58.6580009  58.6320000  91.7639999  57.4659996
  58.2159996  91.3170013  56.5390015  58.4410019  91.0690002  58.3120003
  59.7299995  91.8759995  57.3419991  58.3160019  94.0979996  56.5820007
  57.8930016  95.1070023  56.7729988  57.9059982  93.7139969  55.6230011
  59.4169998  94.1999969  56.4780006  54.2070007  93.9970016  58.4420013
  53.5340004  93.3509979  57.6380005  53.6409988  94.4830017  59.5719986
  54.1829987  95.0299988  60.2050018  52.2330017  94.3020020  59.9259987
  52.0390015  93.2399979  59.8909988  51.8849983  94.7720032  61.3689995
  52.5089989  94.1930008  62.0820007  50.8209991  94.5429993  61.5940018
  52.1279984  96.1589966  61.5810013  53.0830002  96.2389984  61.6259995
  51.2599983  94.9369965  58.9379997  50.2120018  94.3730011  58.6139984
  51.6139984  96.1210022  58.3950005  52.4539986  96.5589981  58.7039986
  50.8139992  96.8700027  57.4459991  49.8009987  96.9199982  57.8180008
  51.3839989  98.2990036  57.3289986  52.4239998  98.2799988  56.9399986
  51.3930016  98.7860031  58.3269997  50.7620010  98.9199982  56.6489983
  50.7589989  96.2310028  56.0579987  49.8919983  96.5439987  55.2400017
  51.6720009  95.2809982  55.7750015  52.3650017  95.0419998  56.4510002
  51.7459984  94.5719986  54.5110016  51.3079987  95.1669998  53.7229996
  53.2260017  94.2379990  54.1689987  53.2970009  93.6920013  53.2029991
  53.6370010  93.5839996  54.9669991  54.1290016  95.4430008  54.0509987
  53.6730003  96.6989975  53.6040001  52.6329994  96.8460007  53.3530006
  54.5600014  97.7760010  53.4739990  54.1980019  98.7360001  53.1370010
  55.9169998  97.6060028  53.7739983  56.6030006  98.4339981  53.6689987
  55.4970016  95.2880020  54.3380013  55.8639984  94.3249969  54.6599998
  56.3870010  96.3590012  54.2029991  57.4350014  96.2229996  54.4249992
  50.9679985  93.2580032  54.5569992  50.8829994  92.5410004  53.5569992
  50.3370018  92.9369965  55.7089996  50.4099998  93.5670013  56.4790001
  49.5929985  91.7009964  55.9510002  48.8670006  91.5869980  55.1599998
  49.1329994  91.8010025  56.9220009  50.4220009  90.4319992  55.9840012
  51.5929985  90.3949966  55.6100006  49.8170013  89.3290024  56.4679985
  48.8629990  89.3610001  56.7579994  50.4869995  88.0439987  56.5950012
  51.3839989  88.2149963  57.1730003  49.6300011  87.0250015  57.3870010
  50.1329994  86.0350037  57.3820000  48.6489983  86.9089966  56.8779984
  49.4090004  87.4280014  58.8600006  48.9490013  88.4390030  58.9010010
  50.4000015  87.4850006  59.3590012  48.5079994  86.4459991  59.6180000
  48.9560013  85.4290009  59.6119995  47.4990005  86.4169998  59.1520004
  48.3979988  86.9449997  61.0260010  48.8390007  87.8059998  61.2789993
  47.6650009  86.3629990  61.9679985  46.9920006  85.2529984  61.7560005
  46.9930000  84.8470001  60.8419991  46.4370003  84.8619995  62.4889984
  47.6129990  86.9039993  63.1689987  48.0929985  87.7620010  63.3489990
  47.0390015  86.4869995  63.8740005  50.9440002  87.4150009  55.2779999
  50.1749992  87.2740021  54.3230019  52.2270012  87.0139999  55.2140007
  52.8170013  87.1900024  55.9980011  52.8160019  86.2890015  54.0989990
  53.8779984  86.4789963  54.1479988  52.3740005  86.6230011  53.1720009
  52.6479988  84.7919998  54.1850014  52.0099983  84.2509995  55.0890007
  53.2750015  84.0670013  53.2379990  53.7709999  84.5260010  52.5050011
  53.4959984  82.6340027  53.3429985  52.5489998  82.1579971  53.5519981
  54.1100006  82.0459976  52.0470009  54.3720016  80.9739990  52.1749992
  55.0369987  82.6100006  51.8079987  53.1679993  82.1340027  50.8779984
  52.0029984  81.3489990  50.8569984  51.7659988  80.7210007  51.7029991
  51.1599998  81.3519974  49.7369995  50.2709999  80.7389984  49.7290001
  51.4739990  82.1399994  48.6250000  50.6160011  82.1250000  47.4990005
  50.9609985  82.7310028  46.8390007  53.4790001  82.9169998  49.7519989
  54.3829994  83.5070038  49.7449989  52.6339989  82.9250031  48.6320000
  52.8860016  83.5339966  47.7760010  54.4420013  82.3099976  54.4959984
  55.5130005  82.9079971  54.6139984  54.0730019  81.3700027  55.3870010
  53.2260017  80.8499985  55.3050003  54.8769989  81.1569977  56.5730019
  55.9160004  81.1439972  56.2779999  54.6580009  82.2829971  57.6170006
  54.8349991  83.2440033  57.0880013  55.4269981  82.2109985  58.4160004
  53.2750015  82.3740005  58.2859993  53.1809998  81.5449982  59.0209999
  52.4669991  82.2679977  57.5309982  53.1199989  83.7279968  58.9860001
  52.9650002  84.5309982  58.2340012  54.0340004  83.9400024  59.5820007
  51.9420013  83.6689987  59.9020004  51.3619995  82.8539963  59.9259987
  51.6829987  84.6220016  60.7890015  52.3600006  85.7500000  60.8230019
  53.0970001  85.9029999  60.1660004  52.1580009  86.4339981  61.5239983
  50.7210007  84.4329987  61.6710014  50.2299995  83.5619965  61.6920013
  50.5279999  85.1360016  62.3549995  54.6100006  79.8190002  57.2299995
  53.5979996  79.1569977  56.9900017  55.5410004  79.4059982  58.1110001
  56.3639984  79.9530029  58.2400017  55.3409996  78.3119965  59.0480003
  54.5390015  77.6770020  58.7029991  56.5859985  77.4430008  59.2509995
  57.3849983  78.0680008  59.7050018  56.2579994  76.2880020  60.2260017
  55.4480019  75.6500015  59.8120003  55.9399986  76.6669998  61.2200012
  57.1510010  75.6470032  60.3889999  57.1250000  76.9130020  57.8950005
  57.2900009  77.7679977  57.2050018  56.3540001  76.2600021  57.4329987
  58.4490013  76.1409988  58.0000000  58.3250008  75.2089996  58.5919991
  59.2330017  76.7630005  58.4819984  58.8089981  75.8539963  56.9889984
  54.9150009  78.9550018  60.3629990  55.5719986  79.8700027  60.8639984
  53.7659988  78.5299988  60.9370003  53.2369995  77.7929993  60.5239983
  53.2120018  79.1139984  62.1500015  53.0719986  80.1650009  61.9469986
  51.8110008  78.5159988  62.4519997  51.9129982  77.4110031  62.5099983
  51.1549988  78.7399979  61.5839996  51.1259995  79.0250015  63.7420006
  51.1180000  80.1350021  63.7169991  51.7019997  78.7180023  64.6409988
  49.6669998  78.5640030  63.9010010  49.0940018  78.8280029  62.9869995
  49.2000008  79.0410004  64.7900009  49.6879997  77.0800018  64.0989990
  50.5439987  76.6340027  64.3590012  48.6380005  76.2809982  63.9449997
  47.4420013  76.7300034  63.6329994  47.3100014  77.7129974  63.5050011
  46.6940002  76.0879974  63.4669991  48.7949982  74.9820023  64.1080017
  49.6990013  74.6159973  64.3320007  48.0229988  74.3639984  63.9580002
  54.1220016  79.0319977  63.3810005  54.8040009  78.0319977  63.6180000
  54.1580009  80.1080017  64.1999969  53.6059990  80.9169998  64.0130005
  54.9939995  80.1620026  65.3840027  55.8899994  79.5859985  65.2050018
  55.4199982  81.6190033  65.6859970  54.5379982  82.2350006  65.9639969
  55.8209991  82.0279999  64.7340012  56.5139999  81.7379990  66.7750015
  57.2680016  80.9400024  66.6029968  56.0709991  81.5889969  67.7829971
  57.2690010  83.0739975  66.7639999  58.2579994  83.1900024  67.5419998
  56.9179993  84.0059967  65.9879990  54.2789993  79.5520020  66.5859985
  53.1469994  79.9189987  66.9169998  54.9109993  78.5609970  67.2539978
  55.8180008  78.2559967  66.9729996  54.3079987  77.8369980  68.3600006
  53.3269997  77.5189972  68.0390015  55.1329994  76.5739975  68.7350006
  54.7169991  76.0999985  69.6500015  56.1839981  76.8679962  68.9440002
  55.1199989  75.5179977  67.6380005  54.1780014  75.4789963  66.8020020
  56.0139999  74.6269989  67.6750031  54.0919991  78.6949997  69.6119995
  55.0349998  79.1669998  70.2529984  52.8120003  78.9150009  69.9919968
  52.0600014  78.5950012  69.4209976  52.4510002  79.6129990  71.2129974
  52.9749985  80.5569992  71.1940002  50.9370003  79.9329987  71.2679977
  50.7050018  80.3690033  72.2630005  50.3300018  79.0090027  71.1539993
  50.5239983  80.9820023  70.2200012  50.5239983  80.5350037  69.2030029
  51.3110008  81.7659988  70.2279968  49.1520004  81.6190033  70.4960022
  49.0509987  81.9580002  71.5500031  48.3390007  80.8880005  70.3000031
  48.9949989  82.7880020  69.5690002  48.4389992  82.6859970  68.7440033
  49.6829987  83.9219971  69.6869965  50.4339981  84.1740036  70.7310028
  50.3750000  83.5530014  71.5130005  50.9239998  85.0419998  70.8160019
  49.6230011  84.8140030  68.7220001  49.1150017  84.6009979  67.8870010
  50.2989998  85.5500031  68.6849976  52.8919983  78.9400024  72.5059967
  53.3629990  79.5979996  73.4339981  52.7509995  77.6009979  72.5830002
  52.3899994  77.0879974  71.8079987  53.1650009  76.8219986  73.7330017
  53.2929993  77.4739990  74.5849991  52.0999985  75.7429962  74.0790024
  52.0489998  74.9629974  73.2890015  51.0989990  76.2190018  74.1520004
  52.4020004  75.0899963  75.4049988  53.1049995  73.8740005  75.4729996
  53.4350014  73.3939972  74.5630035  53.4010010  73.2929993  76.7129974
  53.9440002  72.3600006  76.7620010  52.9770012  73.9130020  77.8939972
  53.1899986  73.4599991  78.8509979  51.9700012  75.6920013  76.5989990
  51.4150009  76.6179962  76.5630035  52.2579994  75.1119995  77.8399963
  51.9249992  75.5849991  78.7519989  54.5159988  76.1740036  73.4359970
  54.7309990  75.5889969  72.3710022  55.4669991  76.2610016  74.3809967
  55.2900009  76.7300034  75.2429962  56.7610016  75.6129990  74.2539978
  56.6150017  74.6780014  73.7340012  57.8269997  76.4260025  73.4580002
  57.4630013  76.5380020  72.4140015  58.7830009  75.8619995  73.4059982
  58.0670013  77.7279968  74.0039978  57.3009987  78.2679977  73.7959976
  57.2649994  75.2340012  75.6370010  56.7809982  75.7279968  76.6549988
  58.2010002  74.2730026  75.7269974  58.6279984  73.8639984  74.9240036
  58.5400009  73.6600037  76.9970016  58.5060005  74.4100037  77.7730026
  57.5579987  72.5029984  77.3700027  56.5449982  72.9309998  77.5299988
  57.8680000  72.0070038  78.3150024  57.4650002  71.4639969  76.2710037
  56.5060005  71.5800018  75.2490005  55.8199997  72.4130020  75.2539978
  56.4650002  70.6539993  74.1979980  55.7400017  70.7819977  73.4079971
  57.3670006  69.5810013  74.1729965  57.3639984  68.6569977  73.0999985
  56.7700005  68.9779968  72.4179993  58.3470001  70.3690033  76.2470016
  59.0940018  70.2699966  77.0210037  58.2989998  69.4319992  75.2060013
  58.9939995  68.6060028  75.1890030  59.9720001  73.1460037  76.9840012
  60.5149994  72.7620010  75.9449997  60.6180000  73.1070023  78.1620026
  60.1870003  73.4169998  79.0049973  61.8889999  72.4240036  78.2979965
  61.8699989  71.5559998  77.6559982  63.1599998  73.2490005  77.9280014
  63.0320015  73.6139984  76.8860016  64.0550003  72.5920029  77.9430008
  63.3779984  74.3779984  78.7799988  63.3860016  74.0660019  79.6869965
  62.0349998  71.9049988  79.7119980  61.6419983  72.5429993  80.6910019
  62.6230011  70.7099991  79.8489990  62.9550018  70.1959991  79.0619965
  62.8269997  70.0859985  81.1350021  62.5330009  70.7419968  81.9410019
  62.0620003  68.7539978  81.2519989  62.2389984  68.2870026  82.2440033
  62.4119987  68.0490036  80.4680023  60.5789986  68.9589996  81.0650024
  59.7529984  69.0540009  82.1949997  60.2050018  69.0149994  83.1750031
  58.3629990  69.1360016  82.0680008  57.7439995  69.1869965  82.9520035
  57.7789993  69.1110001  80.7979965  56.7039986  69.1439972  80.6959991
  59.9739990  68.9359970  79.7900009  60.5870018  68.8209991  78.9089966
  58.5830002  69.0120010  79.6579971  58.1230011  68.9720001  78.6809998
  64.3150024  69.8430023  81.2549973  64.9010010  69.0070038  80.5609970
  64.9700012  70.6210022  82.1269989  64.4599991  71.2160034  82.7440033
  66.4049988  70.7639999  82.1100006  66.8450012  70.1740036  81.3199997
  66.8059998  72.2419968  81.8679962  67.9100037  72.3470001  81.9189987
  66.3450012  72.8880005  82.6460037  66.3529968  72.6949997  80.4810028
  66.2689972  71.9270020  79.5189972  66.0139999  74.0029984  80.3629990
  65.6539993  74.3199997  79.4850006  66.1220016  74.6279984  81.1360016
  66.9990005  70.3300018  83.4410019  66.8339996  71.0410004  84.4390030
  67.7109985  69.2170029  83.5390015  67.5729980  68.0690002  82.6439972
  67.9400024  68.3440018  81.6320038  66.5149994  67.7389984  82.5830002
  68.7919998  69.0279999  84.4960022  68.3050003  68.8359985  85.4410019
  69.5490036  67.8030014  83.9759979  70.0429993  67.2369995  84.7949982
  70.3130035  68.1119995  83.2310028  68.4680023  66.9909973  83.2620010
  68.8840027  66.2959976  82.5009995  67.8909988  66.4100037  84.0130005
  69.6979980  70.2369995  84.7310028  69.9869995  70.9950027  83.8020020
  70.1330032  70.4469986  85.9779968  69.8270035  69.8550034  86.7190018
  71.0070038  71.5439987  86.3369980  71.6829987  71.7190018  85.5130005
  70.2760010  72.8600006  86.6340027  69.7020035  73.1380005  85.7239990
  71.1819992  73.9209976  86.9420013  70.6709976  74.7330017  86.9609985
  69.2949982  72.7129974  87.8119965  69.8359985  72.4700012  88.7519989
  68.5569992  71.9079971  87.6100006  68.7340012  73.6589966  87.9700012
  71.8649979  71.1129990  87.5100021  71.4380035  70.3410034  88.3720016
  73.1250000  71.5830002  87.5550003  73.4410019  72.2279968  86.8629990
  74.0500031  71.2770004  88.6240005  73.5599976  70.6740036  89.3750000
  75.2839966  70.4990005  88.0979996  75.7860031  71.1100006  87.3180008
  74.9240036  69.5699997  87.6060028  76.3300018  70.1039963  89.1660004
  76.6490021  71.0189972  89.7080002  75.7600021  69.1200027  90.1979980
  75.4029999  68.1959991  89.6949997  74.9089966  69.5790024  90.7450027
  76.5400009  68.8399963  90.9369965  77.5830002  69.5090027  88.5070038
  78.0329971  70.2350006  87.7959976  77.3259964  68.5820007  87.9509964
  78.3430023  69.2580032  89.2779999  74.4720001  72.5729980  89.2990036
  75.1569977  73.4199982  88.7200012  74.0579987  72.7549973  90.5650024
  73.5260010  72.0370026  91.0090027  74.4499969  73.8779984  91.4020004
  74.6770020  74.7289963  90.7770004  73.3649979  74.3010025  92.4309998
  73.7689972  75.0749969  93.1169968  73.0599976  73.4250031  93.0419998
  72.2190018  74.8550034  91.7730026  71.8099976  74.1549988  91.2590027
  75.7040024  73.5210037  92.1679993  75.8649979  72.3830032  92.6050034
  76.6389999  74.4789963  92.3320007  76.4960022  75.4079971  91.9970016
  77.9359970  74.2070007  92.9260025  77.8539963  73.3619995  93.5930023
  79.0199966  73.9100037  91.8499985  79.9850006  73.7080002  92.3619995
  79.1529999  74.8130035  91.2160034  78.6839981  72.7020035  90.9420013
  77.7760010  72.9100037  90.3379974  78.4850006  71.8079987  91.5699997
  79.8290024  72.3610001  89.9869995  80.4769974  71.3180008  90.1050034
  80.0930023  73.2580032  89.0100021  80.8389969  73.0630035  88.3730011
  79.5479965  74.0940018  88.9359970  78.4160004  75.3880005  93.7590027
  78.1309967  76.5490036  93.4639969  79.1750031  75.1050034  94.8320007
  79.3170013  74.1549988  95.0999985  79.8150024  76.1100006  95.6630020
  80.0419998  76.9739990  95.0559998  78.9260025  76.5360031  96.8679962
  78.7419968  75.6569977  97.5220032  77.9390030  76.8629990  96.4759979
  79.5049973  77.5960007  97.6429977  79.3929977  78.4160004  97.1559982
  81.1370010  75.5479965  96.1679993  81.2519989  74.3600006  96.4759979
  82.1880035  76.3929977  96.2259979  82.0739975  77.3580017  96.0039978
  83.5299988  75.9820023  96.5989990  83.5179977  74.9400024  96.8820038
  84.5380020  76.1439972  95.4300003  85.5820007  76.0380020  95.7959976
  84.4290009  77.1669998  95.0120010  84.3610001  75.1240005  94.2829971
  83.2900009  75.1050034  93.9879990  85.1790009  75.5510025  93.0559998
  86.2600021  75.5899963  93.3089981  84.8629990  76.5579987  92.7070007
  85.0380020  74.8280029  92.2239990  84.7720032  73.7089996  94.7200012
  84.1529999  73.3649979  95.5749969  85.8379974  73.6959991  95.0329971
  84.6429977  72.9919968  93.8809967  84.0390015  76.7369995  97.8190002
  83.8809967  77.9499969  97.9629974  84.6949997  76.0080032  98.7440033
  84.7679977  75.0260010  98.5910034  85.3180008  76.5589981  99.9430008
  85.8690033  77.4479980  99.6740036  85.9580002  75.7929993 100.3519974
  84.3619995  76.9430008 101.0400009  84.5469971  77.9629974 101.7030029
  83.3050003  76.1340027 101.2639999  83.1569977  75.3460007 100.6709976
  82.4779968  76.2149963 102.4680023  81.6480026  75.5370026 102.3330002
  82.1669998  77.2440033 102.5810013  83.2109985  75.7839966 103.7330017
  84.3089981  75.2249985 103.6549988  82.6439972  75.9840012 104.9209976
  81.4479980  76.7969971 105.1490021  80.5899963  76.4369965 104.5419998
  81.6770020  77.8550034 104.9000015  83.2829971  75.5719986 106.1630020
  84.3280029  75.8420029 106.1419983  82.5299988  76.3479996 107.2570038
  83.0609970  77.3059998 107.4410019  82.4489975  75.8000031 108.2190018
  81.1579971  76.6589966 106.6460037  80.4779968  75.7979965 106.8199997
  80.6959991  77.5729980 107.0770035  83.2180023  74.0640030 106.3580017
  84.2509995  73.4619980 106.6470032  82.0350037  73.4260025 106.2300034
  81.1949997  73.9369965 106.0699997  81.8809967  71.9879990 106.3720016
  82.2809982  71.7220001 107.3389969  80.3850021  71.5749969 106.3509979
  80.3430023  70.4710007 106.4739990  79.9300003  71.8030014 105.3639984
  79.5360031  72.1729965 107.5039978  80.1819992  72.4219971 108.3730011
  78.8119965  71.3980026 107.8339996  78.7009964  73.4020004 107.1409988
  77.8320007  73.7890015 107.9769974  78.8570023  73.9700012 106.0289993
  82.6449966  71.1429977 105.3430023  83.2500000  70.1220016 105.6809998
  82.6320038  71.5550003 104.0569992  82.1869965  72.4120026 103.8069992
  83.2310028  70.8030014 102.9720001  84.0989990  70.2860031 103.3550034
  82.2249985  69.7559967 102.3939972  81.4049988  70.2760010 101.8529968
  81.7829971  69.1999969 103.2480011  82.8209991  68.7220001 101.4349976
  83.9980011  68.8470001 101.0120010  82.0790024  67.7630005 101.0800018
  83.7379990  71.7870026 101.9150009  83.1380005  72.8339996 101.6549988
  84.8850021  71.4570007 101.2910004  85.2369995  70.5419998 101.4720001
  85.5070038  72.1640015 100.1949997  85.6770020  73.1780014 100.5270004
  86.8700027  71.4779968  99.8619995  86.6719971  70.4089966  99.6320038
  87.5289993  71.5080032 100.7559967  87.6299973  72.0810013  98.6940002
  88.2699966  71.2419968  97.7639999  88.2080002  70.1699982  97.8830032
  88.9830017  71.7770004  96.6839981  89.4649963  71.1200027  95.9749985
  89.0680008  73.1650009  96.5230026  89.6149979  73.5790024  95.6880035
  87.7379990  73.4749985  98.5270004  87.2669983  74.1439972  99.2320023
  88.4449997  74.0139999  97.4449997  88.5070038  75.0849991  97.3170013
  84.6179962  72.2460022  98.9520035  84.5230026  73.2939987  98.3170013
  83.9339981  71.1480026  98.5920029  83.9850006  70.3249969  99.1529999
  83.0970001  71.0820007  97.4140015  83.0709991  72.0469971  96.9309998
  83.6709976  70.0520020  96.3949966  83.8249969  69.0849991  96.9199982
  84.6589966  70.4089966  96.0360031  82.8030014  69.8109970  95.1809998
  82.5329971  68.4980011  94.7539978  82.9240036  67.6620026  95.3150024
  81.7710037  68.2630005  93.6019974  81.5739975  67.2509995  93.2819977
  81.2809982  69.3399963  92.8550034  80.5500031  69.0930023  91.6750031
  80.5159988  69.9140015  91.1780014  82.2939987  70.8850021  94.4300003
  82.4929962  71.9010010  94.7369995  81.5380020  70.6529999  93.2720032
  81.1610031  71.4899979  92.7030029  81.6589966  70.7740021  97.8089981
  81.3369980  69.7020035  98.3180008  80.7500000  71.7300034  97.5650024
  81.0199966  72.5960007  97.1510010  79.3399963  71.6029968  97.8499985
  79.1370010  70.6439972  98.3030014  78.8580017  72.7129974  98.8180008
  77.7480011  72.7570038  98.8339996  79.2300034  73.6910019  98.4440002
  79.3229980  72.5230026 100.2750015  79.0790024  73.4540024 100.8290024
  80.4280014  72.4100037 100.3010025  78.5299988  71.1100006 101.1029968
  79.0459976  71.6119995 102.7659988  78.6250000  72.6029968 103.0410004
  80.1520004  71.7009964 102.8339996  78.7109985  70.8769989 103.5279999
  78.5599976  71.6490021  96.5469971  78.8560028  72.4520035  95.6620026
  77.5609970  70.7669983  96.3730011  77.3330002  70.1029968  97.0800018
  76.8470001  70.6689987  95.1190033  76.7470016  71.6679993  94.7210007
  77.6019974  69.7839966  94.0749969  78.6370010  70.1679993  93.9530029
  77.1019974  69.8489990  93.0849991  77.6819992  68.3280029  94.4860001
  78.7160034  67.8639984  95.3180008  79.4700012  68.5550003  95.6650009
  78.7659988  66.5220032  95.7160034  79.5609970  66.1800003  96.3610001
  77.7789993  65.6269989  95.2819977  77.8130035  64.5930023  95.5930023
  76.7129974  67.4120026  94.0350037  75.9169998  67.7519989  93.3899994
  76.7529984  66.0719986  94.4390030  75.9940033  65.3840027  94.0979996
  75.4219971  70.1520004  95.2949982  75.0920029  69.4120026  96.2259979
  74.5459976  70.5270004  94.3440018  74.8460007  71.1760025  93.6490021
  73.2360001  69.9400024  94.1780014  73.2490005  68.9540024  94.6179962
  72.1179962  70.7509995  94.8809967  72.2779999  71.8270035  94.6539993
  72.2689972  70.6159973  95.9729996  70.6610031  70.3830032  94.5029984
  70.5070038  69.2850037  94.5699997  70.4449997  70.6959991  93.4589996
  69.6729965  71.1179962  95.4169998  69.6039963  72.3499985  95.4339981
  68.8820038  70.3550034  96.2080002  68.2939987  70.8209991  96.8690033
  68.8799973  69.3610001  96.1009979  72.9029999  69.7190018  92.7170029
  72.8529968  70.6480026  91.9110031  72.6419983  68.4580002  92.3479996
  72.6610031  67.7269974  93.0260010  72.1340027  68.0569992  91.0609970
  72.4349976  68.7730026  90.3099976  72.6610031  66.6449966  90.6930008
  72.3539963  65.9339981  91.4899979  73.7710037  66.6760025  90.6940002
  72.1949997  66.0820007  89.3330002  71.0839996  66.0889969  89.3030014
  72.7089996  66.9229965  88.1549988  73.8199997  66.9499969  88.1529999
  72.3300018  67.9660034  88.2200012  72.3669968  66.4879990  87.1920013
  72.6399994  64.6190033  89.1750031  72.2279968  63.9949989  89.9970016
  73.7480011  64.5459976  89.1959991  72.2789993  64.2070007  88.2080002
  70.6169968  68.0469971  91.1449966  70.0279999  67.4820023  92.0719986
  69.9339981  68.7060013  90.1979980  70.4130020  69.1809998  89.4639969
  68.4850006  68.7330017  90.1740036  68.1620026  69.5849991  90.7539978
  68.0960007  67.7949982  90.5419998  67.9489975  68.8929977  88.7829971
  68.6849976  68.9120026  87.8020020  66.6230011  69.0179977  88.6920013
  66.0790024  68.9380035  89.5240021  65.8460007  69.1900024  87.4879990
  66.4879990  69.2519989  86.6210022  64.8470001  68.0100021  87.3440018
  64.4189987  67.8190002  88.3509979  65.4160004  67.0999985  87.0569992
  63.6549988  68.1930008  86.3740005  63.1139984  69.1340027  86.6100006
  64.1119995  68.2910004  84.9089966  64.7239990  67.4100037  84.6230011
  64.7269974  69.2030029  84.7509995  63.2290001  68.3460007  84.2369995
  62.6209984  67.0759964  86.5930023  62.0989990  67.2139969  87.5640030
  63.1129990  66.0800018  86.6149979  61.8610001  67.0780029  85.7819977
  65.0630035  70.4840012  87.5839996  64.4810028  70.7860031  88.6250000
  65.0019989  71.2669983  86.4940033  65.5680008  71.0749969  85.6959991
  64.0800018  72.3710022  86.3629990  63.5239983  72.4980011  87.2799988
  64.8339996  73.6800003  86.0260010  65.1770020  73.6719971  84.9690018
  65.7519989  73.7119980  86.6500015  64.0000000  74.9449997  86.3010025
  63.0779991  74.9010010  85.6819992  64.5759964  75.8330002  85.9660034
  63.5340004  75.1559982  88.0439987  65.1660004  75.6729965  88.6470032
  65.4729996  76.6340027  88.1800003  65.9489975  74.9179993  88.4219971
  65.1549988  75.8249969  89.7480011  63.0830002  72.0329971  85.2529984
  63.4230003  71.9229965  84.0739975  61.8030014  71.8489990  85.6210022
  61.5540009  71.9800034  86.5780029  60.7169991  71.4710007  84.7249985
  61.1119995  71.0000000  83.8369980  59.6679993  70.5439987  85.4049988
  58.8129997  70.3659973  84.7180023  59.2700005  71.0210037  86.3259964
  60.2270012  69.2770004  85.7509995  60.8230019  69.4130020  86.4919968
  59.9360008  72.6959991  84.3199997  59.2330017  73.2720032  85.1510010
  60.0289993  73.1429977  83.0520020  60.5559998  72.6750031  82.3460007
  59.5289993  74.4629974  82.6930008  58.8899994  74.8379974  83.4789963
  60.6689987  75.4860001  82.4950027  60.2509995  76.4990005  82.3119965
  61.2970009  75.2070007  81.6230011  61.4840012  75.5490036  83.6669998
  61.8849983  74.6819992  83.7630005  58.6899986  74.4940033  81.4339981
  58.7859993  73.6470032  80.5429993  57.8300018  75.5220032  81.3410034
  57.7840004  76.1949997  82.0749969  56.9300003  75.7149963  80.2330017
  57.3820000  75.3190002  79.3349991  55.5769997  75.0159988  80.4670029
  55.0750008  75.4199982  81.3720016  55.7330017  73.9250031  80.6110001
  54.9070015  75.1569977  79.5930023  56.6959991  77.1979980  79.9840012
  56.6899986  78.0279999  80.8990021  56.5139999  77.5449982  78.6999969
  56.5369987  76.8460007  77.9899979  56.2830009  78.8769989  78.2030029
  56.2500000  79.5680008  79.0319977  57.3600006  79.3140030  77.1790009
  57.1599998  80.3590012  76.8580017  57.2760010  78.6689987  76.2789993
  58.8139992  79.2060013  77.6689987  59.0410004  78.1279984  77.8130035
  58.9269981  79.6949997  78.6600037  59.8219986  79.7539978  76.6439972
  59.4350014  79.5979996  75.6149979  60.8030014  79.2419968  76.7360001
  60.0540009  81.2030029  76.9319992  60.1230011  81.5049973  77.8830032
  60.4900017  82.0739975  76.0390015  60.5519981  81.8880005  74.7419968
  60.2779999  81.0169983  74.3330002  60.9109993  82.6719971  74.2360001
  60.9280014  83.2460022  76.4319992  60.9889984  83.4420013  77.4110031
  61.2200012  83.8450012  75.6869965  54.9519997  78.9089966  77.4629974
  54.6349983  78.0049973  76.6849976  54.1419983  79.9670029  77.6589966
  54.3979988  80.6780014  78.3099976  52.9669991  80.1709976  76.8310013
  53.0940018  79.6139984  75.9150009  51.6500015  79.6760025  77.4970016
  51.4410019  80.2580032  78.4199982  51.7540016  78.6050034  77.7750015
  50.4780006  79.8069992  76.5510025  49.4199982  80.6959991  76.8059998
  49.4259987  81.2910004  77.7080002  48.3740005  80.8430023  75.8830032
  47.5769997  81.5419998  76.0869980  48.3740005  80.0970001  74.6969986
  47.3429985  80.2549973  73.7409973  46.6899986  80.8669968  74.0879974
  50.4570007  79.0530014  75.3659973  51.2719994  78.3769989  75.1529999
  49.4119987  79.1920013  74.4459991  49.4099998  78.6110001  73.5360031
  52.8450012  81.6259995  76.3949966  52.7639999  82.5469971  77.2070007
  52.8100014  81.8590012  75.0749969  52.9360008  81.1009979  74.4400024
  52.5730019  83.1630020  74.4970016  52.9129982  83.9260025  75.1819992
  53.3520012  83.3300018  73.1689987  52.9959984  84.2340012  72.6309967
  53.1419983  82.4550018  72.5169983  54.8300018  83.4729996  73.3420029
  55.7849998  82.4980011  73.2020035  55.5680008  81.4580002  73.0080032
  57.0359993  83.0599976  73.3339996  57.8959999  82.6009979  73.3059998
  56.9129982  84.4020004  73.5589981  55.5309982  84.7089996  73.5749969
  55.1220016  86.0350037  73.7470016  54.0750008  86.3000031  73.7470016
  56.1010017  87.0210037  73.8889999  55.8069992  88.0530014  74.0110016
  57.8820000  85.3820038  73.7109985  58.9350014  85.1429977  73.6959991
  57.4560013  86.6999969  73.8720016  58.1889992  87.4860001  73.9789963
  51.0880013  83.4160004  74.2480011  50.5169983  82.9629974  73.2529984
  50.4300003  84.1760025  75.1480026  50.9259987  84.5230026  75.9410019
  49.0489998  84.6190033  75.0169983  48.4280014  83.7409973  74.9120026
  48.6020012  85.4349976  76.2600021  47.6189995  85.9240036  76.0889969
  49.3419991  86.2300034  76.4919968  48.4430008  84.5469971  77.4609985
  47.2389984  83.8470001  77.6529999  46.4550018  83.9209976  76.9140015
  47.0369987  83.0680008  78.8000031  46.1069984  82.5370026  78.9380035
  48.0390015  82.9940033  79.7740021  47.8820000  82.4029999  80.6640015
  49.4389992  84.4700012  78.4499969  50.3600006  85.0210037  78.3290024
  49.2379990  83.6959991  79.5999985  49.9970016  83.6620026  80.3679962
  48.7820015  85.4860001  73.7910004  47.8050003  85.2979965  73.0619965
  49.6860008  86.4469986  73.5350037  50.4749985  86.5439987  74.1370010
  49.6279984  87.3720016  72.4120026  48.8860016  87.0360031  71.7030029
  49.3170013  88.8239975  72.8050003  49.1250000  89.4250031  71.8909988
  50.3680000  89.4329987  73.5540009  50.0460014  90.2939987  73.8290024
  48.0600014  88.8769989  73.6760025  48.2340012  88.3990021  74.6640015
  47.2210007  88.3489990  73.1729965  47.7470016  89.9280014  73.8539963
  50.9809990  87.2799988  71.7289963  51.7299995  86.3270035  71.9400024
  51.3569984  88.2610016  70.8870010  50.7449989  89.0029984  70.6259995
  52.6969986  88.2969971  70.3190002  53.1310005  87.3079987  70.2979965
  52.6679993  88.8450012  68.8659973  53.7050018  88.9229965  68.4749985
  52.2089996  89.8570023  68.8529968  51.8909988  87.9449997  67.9100037
  51.4220009  86.8389969  68.2910004  51.7630005  88.3460007  66.7190018
  53.6119995  89.1559982  71.2050018  54.7410011  89.4869995  70.8410034
  53.1300011  89.5250015  72.4140015  52.2019997  89.2600021  72.6620026
  53.8429985  90.3860016  73.3359985  54.8940010  90.4089966  73.0879974
  53.2700005  91.8199997  73.2580032  53.7260017  92.4589996  74.0449982
  52.1720009  91.7979965  73.4260025  54.7159996  93.1259995  71.6399994
  55.4679985  93.2509995  72.2870026  53.5460014  92.4580002  71.9240036
  54.5979996  93.6269989  70.3860016  55.3880005  94.2020035  69.9039993
  53.4239998  93.3379974  69.8470001  52.7560005  92.6090012  70.8239975
  51.7470016  92.2519989  70.6579971  53.7620010  89.9219971  74.7860031
  54.6450005  90.2379990  75.5800018  52.7330017  89.1399994  75.1760025
  51.9809990  88.9420013  74.5530014  52.5680008  88.6480026  76.5319977
  53.2340012  89.1839981  77.1920013  51.1220016  88.8880005  77.0339966
  50.4160004  88.4140015  76.3190002  50.9259987  89.9820023  77.0110016
  50.8059998  88.3629990  78.4560013  50.9809990  87.2659988  78.4769974
  51.6969986  89.0049973  79.5309982  51.5550003  90.1070023  79.5449982
  52.7700005  88.7870026  79.3410034  51.4329987  88.6039963  80.5329971
  49.3240013  88.5790024  78.7959976  48.6780014  88.0709991  78.0490036
  49.0779991  89.6630020  78.7979965  49.0919991  88.1630020  79.8000031
  52.9259987  87.1709976  76.6549988  52.3790016  86.3030014  75.9690018
  53.8709984  86.8720016  77.5599976  54.2980003  87.6149979  78.0690002
  54.4510002  85.5749969  77.8109970  54.0239983  84.8420029  77.1429977
  55.9850006  85.6559982  77.5849991  56.3680000  86.5210037  78.1679993
  56.1710014  85.8759995  76.5120010  56.8139992  84.4169998  77.9810028
  56.6059990  84.1439972  79.0370026  56.4729996  83.2149963  77.0970001
  56.6959991  83.4410019  76.0329971  55.3989983  82.9440002  77.1869965
  57.0880013  82.3450012  77.4120026  58.3180008  84.7040024  77.9100037
  58.6040001  85.5299988  78.5970001  58.6100006  84.9810028  76.8750000
  58.8839989  83.7959976  78.2080002  54.2070007  85.1080017  79.2440033
  54.4389992  85.8310013  80.2119980  53.7709999  83.8509979  79.4110031
  53.4930000  83.3259964  78.6100006  53.8709984  83.0940018  80.6399994
  53.8520012  83.7559967  81.4929962  52.7200012  82.0579987  80.7369995
  52.6370010  81.5619965  79.7460022  51.7700005  82.6050034  80.9179993
  52.8540001  80.9420013  81.8010025  53.8100014  80.3929977  81.6589966
  52.8510017  81.5139999  83.2259979  51.9309998  82.1119995  83.4039993
  53.7299995  82.1729965  83.3929977  52.8820000  80.6900024  83.9710007
  51.7480011  79.8899994  81.6100006  51.8660011  79.3799973  80.6299973
  50.7449989  80.3690033  81.6320038  51.7949982  79.1240005  82.4120026
  55.1790009  82.3209991  80.6630020  55.5060005  81.6250000  79.7009964
  55.9389992  82.3939972  81.7710037  55.6809998  83.0059967  82.5149994
  57.0369987  81.4869995  82.0360031  56.9959984  80.6559982  81.3460007
  58.4080009  82.2080002  81.8430023  58.4280014  83.1050034  82.4980011
  58.4790001  82.5479965  80.7880020  59.6510010  81.3870010  82.1719971
  59.6699982  80.5780029  83.1320038  60.7089996  81.6640015  81.5479965
  56.8269997  80.8880005  83.4270020  56.6949997  81.6139984  84.4160004
  56.7729988  79.5400009  83.5230026  56.8639984  78.9919968  82.6949997
  56.7589989  78.8140030  84.7860031  55.7999992  78.3239975  84.8669968
  56.9720001  79.4810028  85.6080017  57.8129997  77.7419968  84.8050003
  58.0460014  77.0790024  83.7949982  58.4539986  77.5210037  85.9739990
  58.2400017  78.0859985  86.7679977  59.4910011  76.5110016  86.1439972
  60.4440002  76.9899979  85.9759979  59.3100014  75.6959991  85.4589996
  59.5180016  75.9349976  87.5380020  59.6250000  76.6610031  88.5260010
  59.4510002  74.5960007  87.6529999  59.3769989  74.0469971  86.8239975
  59.3820000  73.8629990  88.9120026  59.2750015  74.5559998  89.7330017
  58.1980019  72.8840027  88.9570007  58.2939987  72.1800003  88.1019974
  58.2109985  72.0660019  90.2720032  58.1829987  72.7429962  91.1520004
  59.1110001  71.4179993  90.3509979  57.3260002  71.3960037  90.3239975
  56.8470001  73.6240005  88.7919998  56.9150009  74.3730011  87.9749985
  56.6349983  74.1740036  89.7340012  55.6699982  72.6930008  88.4670029
  55.4850006  71.9769974  89.2959976  55.8740005  72.1149979  87.5410004
  54.7430000  73.2839966  88.3099976  60.6839981  73.0970001  89.1210022
  61.1430016  72.3659973  88.2440033  61.3209991  73.2409973  90.3010025
  60.9010010  73.7529984  91.0459976  62.5509987  72.5540009  90.6380005
  63.0929985  72.3550034  89.7249985  63.4609985  73.4280014  91.5490036
  62.9249992  73.6790009  92.4899979  63.7019997  74.3799973  91.0319977
  64.7620010  72.7360001  91.8980026  64.9280014  72.0810013  93.1320038
  64.1090012  72.0559998  93.8359985  66.1399994  71.4599991  93.4560013
  66.2570038  70.9729996  94.4130020  67.1979980  71.4749985  92.5390015
  68.1330032  70.9950027  92.7860031  65.8300018  72.7389984  90.9860001
  65.7099991  73.2220001  90.0270004  67.0419998  72.1110001  91.3000031
  67.8550034  72.1210022  90.5889969  62.2589989  71.2129974  91.3109970
  61.3989983  71.1169968  92.1880035  62.9930000  70.1549988  90.9199982
  63.6419983  70.2779999  90.1719971  62.9920006  68.8639984  91.5970001
  62.4959984  68.9560013  92.5520020  62.3040009  67.7480011  90.8130035
  62.7630005  67.6539993  89.8050003  60.9140015  68.0230026  90.6610031
  60.8409996  68.8570023  90.1910019  62.4070015  66.3960037  91.5400009
  62.0369987  66.4869995  92.5839996  63.4539986  66.0260010  91.5599976
  61.7960014  65.6299973  91.0159988  64.4199982  68.4380035  91.8830032
  65.2360001  68.2689972  90.9779968  64.7699966  68.2539978  93.1679993
  64.1050034  68.4759979  93.8759995  66.0350037  67.7229996  93.6429977
  66.8190002  68.3590012  93.2590027  66.0319977  67.7910004  95.2020035
  65.1360016  67.2419968  95.5619965  65.9359970  68.8509979  95.5189972
  67.2809982  67.2119980  95.8649979  68.4140015  67.4720001  95.4489975
  67.0849991  66.3909988  96.9209976  66.1869965  66.3440018  97.3580017
  67.8629990  65.9020004  97.3130035  66.3270035  66.2900009  93.1539993
  65.4560013  65.4189987  93.1859970  67.5770035  66.0149994  92.7249985
  68.2770004  66.7239990  92.6819992  68.0279999  64.6790009  92.3580017
  67.1930008  63.9949989  92.3740005  68.6320038  64.5940018  90.9489975
  69.4629974  65.3259964  90.8610001  69.2060013  63.1780014  90.7009964
  68.4140015  62.4119987  90.8430023  70.0510025  62.9469986  91.3840027
  69.5910034  63.0919991  89.6630020  67.5690002  64.9570007  89.8779984
  67.0120010  65.8669968  90.1880035  66.8300018  64.1289978  89.8199997
  68.1559982  65.2229996  88.4860001  68.6620026  64.3180008  88.0869980
  68.8960037  66.0510025  88.5250015  67.3519974  65.5090027  87.7750015
  68.9909973  64.1809998  93.4300003  68.6800003  63.2540016  94.1800003
  70.1890030  64.7929993  93.5459976  70.4049988  65.5899963  92.9869995
  71.2080002  64.3479996  94.4779968  70.7210007  63.9599991  95.3600006
  72.0859985  63.2299995  93.8320007  72.5370026  63.6110001  92.8909988
  71.4400024  62.3639984  93.5729980  73.1790009  62.7260017  94.7409973
  74.5319977  62.8639984  94.3889999  74.7969971  63.3359985  93.4540024
  75.5419998  62.4029999  95.2450027  76.5790024  62.5209999  94.9690018
  75.2080002  61.7919998  96.4589996  76.2389984  61.3359985  97.3140030
  75.8410034  60.9430008  98.0950012  72.8529968  62.0909996  95.9520035
  71.8160019  61.9609985  96.2259979  73.8610001  61.6310005  96.8109970
  73.5930023  61.1539993  97.7429962  72.0370026  65.5439987  94.9380035
  72.2959976  66.4700012  94.1760025  72.4690018  65.5810013  96.2109985
  72.3209991  64.8199997  96.8389969  73.2040024  66.7170029  96.7320023
  73.9219971  67.0309982  95.9879990  72.2570038  67.9089966  97.0790024
  71.6650009  68.1719971  96.1760025  72.8600006  68.7990036  97.3580017
  71.3160019  67.6169968  98.2450027  71.6880035  67.7710037  99.4100037
  70.0550003  67.2360001  97.9479980  69.4280014  67.0739975  98.7109985
  69.7559967  67.1709976  96.9960022  74.0080032  66.2839966  97.9499969
  73.7880020  65.2060013  98.5059967  74.9580002  67.1309967  98.3929977
  75.1809998  67.9560013  97.8809967  75.6780014  66.9380035  99.6399994
  75.3249969  66.0329971 100.1129990  77.2040024  66.7360001  99.4199982
  77.3499985  65.9240036  98.6760025  77.6579971  66.4140015 100.3820038
  77.9309998  67.9840012  98.9209976  77.3450012  68.9769974  98.4879990
  79.2799988  67.9369965  99.0100021  79.8180008  68.7369995  98.7440033
  79.7389984  67.1360016  99.3949966  75.3659973  68.0540009 100.6439972
  76.1449966  68.3369980 101.5540009  74.1800003  68.6959991 100.5510025
  73.4940033  68.4130020  99.8850021  73.8059998  69.8130035 101.4089966
  74.6859970  70.3870010 101.6579971  72.7559967  70.7470016 100.7320023
  72.4629974  71.5540009 101.4359970  71.8479996  70.1579971 100.4810028
  73.2220001  71.4489975  99.4769974  74.5780029  71.6610031  99.1520004
  75.3629990  71.2679977  99.7809982  74.9270020  72.4079971  98.0179977
  75.9649963  72.5690002  97.7639999  73.9410019  72.9680023  97.2050018
  74.3190002  73.7389984  96.0790024  73.5500031  74.2210007  95.7659988
  72.2399979  72.0009995  98.6340027  71.1959991  71.8610001  98.8740005
  72.5940018  72.7699966  97.5169983  71.8219986  73.1949997  96.8929977
  73.2220001  69.3119965 102.7330017  72.7180023  70.0709991 103.5609970
  73.3590012  68.0000000 102.9879990  73.7509995  67.3929977 102.3020020
  73.1169968  67.3489990 104.2470016  72.4430008  67.9499969 104.8399963
  72.4580002  65.9609985 103.9940033  71.4940033  66.1200027 103.4649963
  72.2330017  65.4899979 104.9749985  73.2819977  64.9739990 103.1679993
  74.2669983  65.3649979 102.4889984  72.8820038  63.7760010 103.1409988
  74.4319992  67.2409973 105.0350037  74.4430008  66.8440018 106.2030029
  75.5660019  67.6809998 104.4400024  75.5749969  67.8840027 103.4639969
  76.8030014  67.9229965 105.1589966  76.9349976  67.1309967 105.8820038
  78.0510025  67.9199982 104.2429962  78.9300003  68.2590027 104.8310013
  77.9150009  68.6399994 103.4079971  78.4079971  66.5339966 103.6829987
  77.6669998  66.2450027 102.9069977  78.3590012  65.7829971 104.5000000
  79.8310013  66.5490036 103.0979996  80.5299988  66.8450012 103.9089966
  79.8619995  67.3430023 102.3209991  80.2969971  65.2200012 102.4869995
  79.6869965  64.9800034 101.5910034  80.2050018  64.3909988 103.2210007
  81.7180023  65.3249969 102.0749969  82.3529968  65.2600021 102.8960037
  81.8779984  66.2509995 101.6299973  81.9800034  64.5790024 101.4000015
  76.7910004  69.2200012 105.9560013  77.6100006  69.3970032 106.8570023
  75.8499985  70.1510010 105.6669998  75.2089996  70.0009995 104.9169998
  75.6299973  71.3489990 106.4629974  76.5339966  71.9390030 106.4240036
  74.4260025  72.1959991 105.9430008  74.2289963  73.0419998 106.6370010
  73.5220032  71.5500031 105.9199982  74.5820007  72.8089981 104.5690002
  75.8140030  72.9280014 103.8980026  76.7190018  72.5410004 104.3410034
  75.8889999  73.5619965 102.6490021  76.8359985  73.6490021 102.1370010
  74.7350006  74.0839996 102.0540009  74.7929993  74.5609970 101.0869980
  73.4339981  73.3499985 103.9589996  72.4810028  73.2740021 104.4619980
  73.5049973  73.9800034 102.7109985  72.6110001  74.3750000 102.2519989
  75.3750000  71.0429993 107.9430008  74.4520035  70.3069992 108.3020020
  76.2030029  71.6169968 108.8349991  76.9319992  72.2220001 108.5250015
  76.1240005  71.3820038 110.2649994  75.4990005  70.5270004 110.4769974
  77.5299988  71.1210022 110.8679962  77.4560013  71.0820007 111.9759979
  78.2089996  71.9599991 110.6060028  78.1689987  69.7979965 110.4189987
  78.3899994  69.8410034 109.3310013  77.4449997  68.9710007 110.5820007
  79.4629974  69.4990005 111.2009964  79.1989975  69.4219971 112.2770004
  80.1520004  70.3619995 111.0849991  80.1620026  68.2109985 110.7389984
  80.5429993  68.3369980 109.7030029  79.4489975  67.3600006 110.7570038
  81.3069992  67.8759995 111.6279984  80.9700012  67.6579971 112.5869980
  81.9779968  68.6679993 111.6880035  81.8099976  67.0400009 111.2669983
  75.5070038  72.5690002 110.9840012  75.3529968  72.5780029 112.2070007
  75.1299973  73.6139984 110.2269974  75.2040024  73.5680008 109.2330017
  74.8190002  74.9039993 110.8020020  74.4010010  74.7600021 111.7870026
  76.0979996  75.7890015 110.9300003  76.7959976  75.2870026 111.6330032
  75.8509979  76.7789993 111.3700027  76.7669983  75.9810028 109.6770020
  77.1949997  75.1510010 109.4509964  73.7649994  75.6500015 110.0049973
  73.6370010  75.5130005 108.7880020  72.9690018  76.4769974 110.7109985
  72.9580002  76.4440002 111.7080002  72.0589981  77.4570007 110.1269989
  72.0910034  77.4029999 109.0490036  70.5869980  77.2399979 110.5930023
  70.2689972  76.2419968 110.2229996  69.9140015  77.9899979 110.1269989
  70.4410019  77.2549973 112.0230026  70.4739990  78.1709976 112.3109970
  72.5210037  78.8539963 110.5130005  71.7799988  79.8330002 110.4290009
  73.7870026  78.9639969 110.9720001  74.3740005  78.1579971 110.9570007
  74.3960037  80.1650009 111.5130005  73.7590027  80.4990005 112.3190002
  75.7979965  79.8690033 112.1100006  76.3160019  80.8180008 112.3669968
  76.4079971  79.3590012 111.3339996  75.7829971  79.0029984 113.3899994
  75.1330032  78.1169968 113.2239990  77.1959991  78.4909973 113.7080002
  77.8850021  79.3450012 113.8799973  77.5930023  77.8830032 112.8669968
  77.1839981  77.8610001 114.6240005  75.2279968  79.7829971 114.5930023
  74.1760025  80.0950012 114.4189987  75.8410034  80.6910019 114.7779999
  75.2559967  79.1520004 115.5070038  74.4909973  81.3290024 110.5339966
  75.2340012  81.3079987 109.5500031  73.7170029  82.3949966 110.8089981
  73.0749969  82.3560028 111.5709991  73.7870026  83.6729965 110.1340027
  73.7099991  83.4700012 109.0759964  72.5989990  84.5729980 110.5630035
  72.6350021  85.5329971 110.0049973  72.7030029  84.8079987 111.6439972
  71.2060013  83.9339981 110.3489990  71.1750031  82.9420013 110.8479996
  70.1100006  84.7799988 111.0159988  70.1240005  85.8219986 110.6320038
  70.2679977  84.8180008 112.1149979  69.1070023  84.3430023 110.8199997
  70.9140015  83.7040024 108.8590012  71.6289978  82.9710007 108.4280014
  71.0000000  84.6529999 108.2870026  69.8870010  83.3000031 108.7269974
  75.1110001  84.3949966 110.4209976  75.6149979  84.2750015 111.5439987
  75.7279968  85.1419983 109.5000000  75.4369965  85.0999985 108.0650024
  74.5049973  85.6729965 107.8690033  75.3320007  84.0559998 107.6989975
  76.8209991  86.0660019 109.8030014  77.6760025  85.4580002 110.0599976
  77.0400009  86.8180008 108.4830017  78.0920029  87.1589966 108.3710022
  76.3600006  87.6930008 108.4069977  76.6429977  85.7880020 107.4229965
  76.4100037  86.2519989 106.4400024  77.4649963  85.0520020 107.2929993
  76.5810013  87.0000000 110.9889984  75.5739975  87.7099991 111.0159988
  77.5019989  87.0299988 111.9749985  78.3050003  86.4410019 111.9369965
  77.3130035  87.7850037 113.2020035  76.2630005  87.9820023 113.3610001
  77.8430023  86.9509964 114.3850021  78.9309998  86.7509995 114.2779999
  77.3119965  85.9759979 114.4240036  77.6709976  87.4749985 115.3499985
  78.0289993  89.1309967 113.1589966  77.9639969  89.9319992 114.0940018
  78.6999969  89.4250031 112.0329971  78.7389984  88.7760010 111.2770004
  79.4290009  90.6460037 111.7779999  79.6240005  91.1579971 112.7089996
  80.7900009  90.2770004 111.1050034  81.3619995  89.6240005 111.7990036
  81.3809967  91.2040024 110.9420013  80.6630020  89.5490036 109.7720032
  79.5360031  89.1969986 109.3479996  81.7040024  89.3000031 109.1100006
  78.6129990  91.6009979 110.8960037  79.0500031  92.7129974 110.6019974
  77.3960037  91.1930008 110.4759979  77.0500031  90.3079987 110.7770004
  76.5989990  91.9179993 109.5000000  77.1340027  92.7969971 109.1729965
  76.2740021  91.0520020 108.2519989  75.5999985  90.2129974 108.5299988
  77.2229996  90.6050034 107.8870010  75.6819992  91.8229980 107.1979980
  76.3949966  92.3000031 106.7679977  75.2880020  92.3600006 110.1200027
  74.5690002  91.5690002 110.7360001  74.9410019  93.6539993 109.9850006
  75.5550003  94.2929993 109.5279999  73.7200012  94.2249985 110.5520020
  73.3229980  93.5650024 111.3089981  73.9530029  95.5889969 111.2129974
  72.9980011  95.9919968 111.6129990  74.5329971  96.5319977 110.3119965
  74.5589981  97.3740005 110.7720032  74.9300003  95.4100037 112.3889999
  75.9290009  95.0810013 112.0319977  74.5410004  94.6500015 113.1009979
  75.0569992  96.3679962 112.9380035  72.6250000  94.3970032 109.5059967
  71.4990005  94.7919998 109.8190002  72.9209976  94.0859985 108.2300034
  73.8280029  93.7350006 108.0120010  72.0059967  94.2149963 107.1119995
  71.6559982  95.2360001 107.1569977  72.7389984  94.0100021 105.7639999
  72.0139999  94.0569992 104.9229965  73.1900024  92.9940033 105.7590027
  73.8460007  95.0459976 105.4779968  74.5780029  95.0360031 106.3140030
  74.5989990  94.6630020 104.1979980  73.8980026  94.6780014 103.3359985
  75.0309982  93.6439972 104.2910004  75.4229965  95.3779984 103.9899979
  73.2740021  96.4670029 105.3519974  72.7959976  96.7939987 106.3000031
  72.5199966  96.5100021 104.5370026  74.0849991  97.1890030 105.1159973
  70.7750015  93.2959976 107.1579971  70.8639984  92.1829987 107.6930008
  69.6039963  93.6880035 106.6279984  69.3140030  95.0589981 106.2040024
  69.9329987  95.3010025 105.3130035  69.5139999  95.7839966 107.0210037
  68.5849991  92.7600021 106.1289978  68.0849991  92.3690033 107.0029984
  67.6589966  93.6250000 105.2610016  66.6060028  93.2720032 105.3050003
  67.9940033  93.6279984 104.2020035  67.8330002  95.0350037 105.8270035
  67.5650024  95.8229980 105.0910034  67.2109985  95.1539993 106.7399979
  69.1119995  91.5490036 105.3619995  69.9879990  91.7030029 104.5110016
  68.5839996  90.3440018 105.6389999  67.8570023  90.2440033 106.3140030
  69.0640030  89.1210022 105.0260010  70.0999985  89.2490005 104.7470016
  69.0179977  87.9570007 106.0350037  69.2160034  86.9929962 105.5189972
  68.0009995  87.9049988 106.4800034  70.0759964  88.1149979 107.1429977
  70.1959991  89.1829987 107.4240036  71.0520020  87.7990036 106.7149963
  69.8040009  87.2770004 108.3919983  70.7440033  87.1699982 108.9749985
  69.4400024  86.2630005 108.1210022  68.8190002  88.0279999 109.2399979
  69.0899963  88.9209976 109.5989990  67.6660004  87.5569992 109.6979980
  67.1289978  86.4260025 109.3059998  66.2149963  86.1829987 109.6299973
  67.4840012  85.9779968 108.4850006  67.0080032  88.2630005 110.6009979
  67.3960037  89.1179962 110.9459991  66.1569977  87.9069977 110.9850006
  68.3180008  88.7819977 103.7480011  67.0920029  88.6419983 103.7389984
  69.0510025  88.6719971 102.6230011  70.0449982  88.7279968 102.6780014
  68.4599991  88.6320038 101.2939987  67.4270020  88.3270035 101.3759995
  68.4970016  89.9929962 100.5800018  67.9690018  89.9049988  99.6060028
  67.7620010  91.0479965 101.4339981  68.3700027  91.3180008 102.3239975
  66.7799988  90.6719971 101.7910004  67.5930023  91.9759979 100.8470001
  69.9369965  90.4509964 100.2910004  70.4570007  89.7760010  99.5780029
  70.5230026  90.4879990 101.2340012  69.9349976  91.4720001  99.8529968
  69.1129990  87.5970001 100.3880005  68.5049973  87.1760025  99.4049988
  70.3379974  87.1299973 100.7060013  70.8290024  87.5469971 101.4680023
  71.0339966  86.0889969  99.9690018  70.3099976  85.4940033  99.4339981
  72.0849991  86.6600037  98.9670029  72.7279968  85.8349991  98.5920029
  72.7429962  87.3720016  99.5090027  71.4950027  87.3590012  97.7200012
  72.3420029  87.7050018  97.0910034  70.9189987  88.2539978  98.0419998
  70.5879974  86.4639969  96.8700027  69.7160034  86.1470032  97.4810028
  71.1340027  85.5670013  96.5080032  70.1259995  87.2679977  95.6930008
  70.7559967  87.9100037  95.2570038  68.9950027  87.0350037  95.0410004
  68.0970001  86.1589966  95.4270020  68.2080002  85.6940002  96.3050003
  67.2779999  86.0250015  94.8679962  68.7129974  87.7060013  93.9499969
  69.2220001  88.5400009  93.7360001  67.7760010  87.5660019  93.6309967
  71.7340012  85.0930023 100.8820038  71.9729996  83.9509964 100.4899979
  72.0390015  85.4570007 102.1439972  71.8980026  86.3929977 102.4560013
  72.6360016  84.5459976 103.1259995  73.5339966  84.1529999 102.6719971
  73.0800018  85.2009964 104.4329987  73.3219986  84.4410019 105.2070007
  72.1039963  86.0869980 104.9499969  72.4010010  86.9629974 104.6930008
  74.3570023  86.0100021 104.1579971  74.1869965  86.7490005 103.3460007
  75.1859970  85.3379974 103.8499985  74.6689987  86.5609970 105.0709991
  71.7919998  83.3170013 103.4349976  72.3170013  82.2200012 103.6230011
  70.4479980  83.4599991 103.4459991  70.0690002  84.3779984 103.3669968
  69.4909973  82.3619995 103.5530014  69.7679977  81.7900009 104.4260025
  68.0530014  82.8949966 103.7929993  67.2969971  82.0830002 103.7200012
  67.8000031  83.6589966 103.0270004  67.9199982  82.7109985 106.3109970
  68.0449982  81.7200012 106.3519974  67.8889999  83.4779968 105.1669998
  67.6729965  83.5370026 107.3529968  67.6360016  83.1839981 108.3840027
  67.4810028  84.7850037 106.9589996  67.6019974  84.7440033 105.5759964
  67.4459991  85.6340027 104.9800034  69.4589996  81.3430023 102.4069977
  68.5889969  80.4749985 102.3779984  70.4319992  81.3479996 101.4639969
  71.1350021  82.0540009 101.4830017  70.5469971  80.3769989 100.3769989
  69.6490021  80.4660034  99.7839966  71.7409973  80.6770020  99.4560013
  71.5749969  81.6880035  99.0270004  73.0709991  80.7369995 100.2450027
  73.3440018  79.7389984 100.6500015  73.0250015  81.4690018 101.0790024
  73.8899994  81.0559998  99.5650024  71.8789978  79.6890030  98.2669983
  72.0940018  78.6679993  98.6500015  72.7669983  79.9970016  97.6729965
  70.6660004  79.6350021  97.3300018  70.4909973  80.6259995  96.8590012
  69.7480011  79.3290024  97.8759995  70.8420029  78.8960037  96.5189972
  70.5790024  78.9329987 100.8710022  69.9260025  78.0530014 100.3140030
  71.2829971  78.6849976 101.9980011  71.7760010  79.4380035 102.4270020
  71.3820038  77.3990021 102.6589966  71.8270035  76.7020035 101.9639969
  72.2699966  77.5220032 103.9260025  72.4140015  76.5059967 104.3519974
  71.7460022  78.1309967 104.6940002  73.6510010  78.1729965 103.6760025
  73.5029984  79.2289963 103.3649979  74.1679993  77.6569977 102.8389969
  74.5609970  78.2040024 104.9160004  74.0009995  78.6029968 105.7890015
  75.4599991  78.8280029 104.7249985  74.9909973  76.7959976 105.1760025
  74.7750015  76.0930023 104.4980011  75.6999969  76.4029999 106.2300034
  76.0360031  77.1949997 107.2200012  75.6729965  78.1259995 107.2409973
  76.3840027  76.7630005 108.0520020  76.0940018  75.1520004 106.2770004
  76.8050003  74.8830032 106.9280014  76.0139999  74.6019974 105.4459991
  70.0220032  76.8379974 103.0790024  69.7450027  75.6510010 102.9110031
  69.1370010  77.6910019 103.6320038  69.3779984  78.6500015 103.7580032
  67.7750015  77.3489990 103.9860001  67.8130035  76.4639969 104.6039963
  67.1429977  78.5039978 104.7990036  66.1100006  78.2239990 105.0970001
  67.0950012  79.4369965 104.1979980  67.9339981  78.7529984 106.0759964
  68.2070007  77.7770004 106.8290024  68.2279968  79.9410019 106.3860016
  66.8850021  76.9879990 102.7870026  66.1569977  75.9929962 102.8199997
  66.9400024  77.7689972 101.6800003  67.5260010  78.5759964 101.6780014
  66.1579971  77.5130005 100.4729996  65.1220016  77.4700012 100.7750015
  66.3099976  78.6380005  99.4020004  65.7929993  78.3560028  98.4599991
  67.3840027  78.7990036  99.1689987  65.6920013  79.9369965  99.8580017
  64.2959976  80.1090012  99.8610001  63.6529999  79.2949982  99.5589981
  63.7220001  81.3290024 100.2470016  62.6469994  81.4359970 100.2429962
  64.5429993  82.3949966 100.6370010  63.9910011  83.6279984 101.0350037
  63.0369987  83.5220032 101.0569992  66.4990005  81.0309982 100.2060013
  67.5729980  80.9369965 100.1589966  65.9319992  82.2429962 100.6190033
  66.5670013  83.0709991 100.8980026  66.4369965  76.1729965  99.7880020
  65.5149994  75.4609985  99.3850021  67.7200012  75.7779999  99.6620026
  68.4599991  76.3509979 100.0059967  68.1370010  74.6250000  98.8710022
  67.5830002  74.6549988  97.9440002  69.6159973  74.6750031  98.4990005
  69.8740005  73.7689972  97.9089966  69.8659973  75.8880005  97.5820007
  69.6470032  76.8420029  98.1080017  69.2259979  75.8300018  96.6750031
  70.9290009  75.9100037  97.2590027  70.5090027  74.7139969  99.7549973
  70.3649979  73.8099976 100.3840027  70.2900009  75.6119995 100.3720016
  71.5790024  74.7620010  99.4589996  67.8180008  73.2669983  99.4929962
  67.8830032  72.2300034  98.8280029  67.4319992  73.2360001 100.7870026
  67.4219971  74.0859985 101.3089981  66.9850006  72.0459976 101.4919968
  67.7919998  71.3290024 101.4670029  66.6569977  72.3740005 102.9729996
  66.2369995  71.4720001 103.4680023  65.8840027  73.1709976 103.0080032
  67.8850021  72.8209991 103.7890015  68.3270035  73.7180023 103.3050003
  68.6439972  72.0100021 103.7649994  67.5459976  73.1620026 105.2460022
  67.1169968  72.2689972 105.7480011  66.8270035  74.0070038 105.2910004
  68.8270035  73.5619965 105.9130020  69.6399994  73.7180023 105.3519974
  68.9749985  73.6969986 107.2259979  67.9720001  73.5569992 108.0670013
  67.0510025  73.4079971 107.7070007  68.1179962  73.7009964 109.0459976
  70.1669998  73.9660034 107.7220001  70.9520035  74.0619965 107.1100006
  70.2900009  74.0009995 108.7129974  65.7669983  71.3610001 100.8720016
  65.6640015  70.1340027 100.8479996  64.8020020  72.1600037 100.3710022
  64.9530029  73.1460037 100.3750000  63.5540009  71.6900024  99.7910004
  63.0639992  71.0879974 100.5410004  62.6279984  72.8809967  99.4250031
  61.6539993  72.5139999  99.0350037  63.1040001  73.5120010  98.6449966
  62.3419991  73.7229996 100.6669998  61.4519997  73.4049988 101.4599991
  63.0730019  74.8489990 100.8300018  62.8489990  75.4560013 101.5930023
  63.8040009  75.0800018 100.1880035  63.7270012  70.8069992  98.5479965
  64.3499985  71.1989975  97.5599976  63.1609993  69.5780029  98.5680008
  62.7150002  69.2360001  99.3919983  63.1870003  68.6650009  97.4369965
  64.2200012  68.5479965  97.1449966  62.5979996  67.2900009  97.8399963
  62.4970016  66.6370010  96.9469986  61.5950012  67.4069977  98.3020020
  63.5379982  66.5770035  98.7979965  64.7509995  66.4520035  98.4779968
  63.0550003  66.0589981  99.8410034  62.4609985  69.1669998  96.1930008
  62.9679985  69.0599976  95.0780029  61.2519989  69.7340012  96.3610001
  60.8580017  69.8160019  97.2730026  60.4420013  70.2200012  95.2549973
  61.0489998  70.2910004  94.3649979  59.2470016  69.3130035  94.9420013
  58.6399994  69.1640015  95.8600006  58.3499985  69.9219971  93.8430023
  58.9510002  70.1490021  92.9359970  57.8510017  70.8529968  94.1859970
  57.5559998  69.1989975  93.5589981  59.7709999  67.9420013  94.4690018
  60.3499985  67.4319992  95.2679977  60.4259987  68.0690002  93.5810013
  58.9220009  67.2839966  94.1839981  59.9780006  71.6259995  95.5830002
  59.4609985  71.8830032  96.6729965  60.1609993  72.5859985  94.6539993
  60.5880013  72.3769989  93.7779999  59.6819992  73.9400024  94.8580017
  58.7130013  73.8769989  95.3290024  60.6090012  74.8010025  95.7770004
  60.6730003  74.3099976  96.7710037  60.1710014  75.8079987  95.9449997
  62.0180016  74.9789963  95.2539978  63.0600014  74.1569977  95.7149963
  62.8359985  73.3310013  96.3740005  64.3899994  74.4169998  95.3560028
  65.1770020  73.7799988  95.7330017  64.6890030  75.4899979  94.5049973
  66.0250015  75.7600021  94.1259995  66.5879974  75.0609970  94.4680023
  62.3339996  76.0579987  94.4069977  61.5499992  76.7229996  94.0739975
  63.6590004  76.3079987  94.0279999  63.8930016  77.1419983  93.3830032
  59.4379997  74.6409988  93.5329971  60.0000000  74.3000031  92.4950027
  58.5709991  75.6719971  93.5339966  58.0880013  75.9309998  94.3669968
  58.2799988  76.4530029  92.3479996  58.3380013  75.8150024  91.4789963
  56.8429985  77.0199966  92.4449997  56.7550011  77.6500015  93.3560028
  56.1500015  76.1620026  92.5790024  56.3440018  77.8399963  91.2350006
  57.0009995  78.7249985  91.0970001  56.3489990  77.0220032  89.9380035
  55.6710014  76.1470032  90.0370026  57.3709984  76.6600037  89.6940002
  55.9930000  77.6370010  89.0839996  54.9230003  78.3450012  91.5189972
  54.9039993  78.9390030  92.4570007  54.2239990  77.4889984  91.6350021
  54.5589981  78.9850006  90.6869965  59.3079987  77.5650024  92.1930008
  59.2249985  78.6159973  92.8290024  60.3409996  77.3519974  91.3529968
  60.3790016  76.5080032  90.8249969  61.4329987  78.2900009  91.1419983
  61.8909988  78.4860001  92.0999985  62.4920006  77.6279984  90.2149963
  61.9930000  77.2639999  89.2919998  62.9199982  76.7470016  90.7379990
  63.6549988  78.5449982  89.8229980  64.6589966  78.6409988  90.5309982
  63.5579987  79.1979980  88.6389999  64.3249969  79.7750015  88.3570023
  62.7500000  79.0960007  88.0589981  60.9700012  79.6409988  90.6029968
  61.3629990  80.6920013  91.1060028  60.0779991  79.6289978  89.5979996
  59.7379990  78.7720032  89.2170029  59.5349998  80.8509979  89.0569992
  59.3370018  81.5169983  89.8840027  60.5260010  81.5550003  88.0699997
  61.5480003  81.5400009  88.5049973  60.2350006  82.6230011  87.9739990
  60.5929985  80.9400024  86.6709976  61.4589996  80.1159973  86.3580017
  59.7000008  81.4010010  85.7659988  59.6780014  81.0149994  84.8440018
  59.0740013  82.1389999  86.0159988  58.1879997  80.5380020  88.4260025
  57.9099998  79.4079971  88.0270004  57.3409996  81.5640030  88.3069992
  57.6080017  82.4550018  88.6650009  56.0429993  81.4800034  87.6829987
  56.1699982  81.0619965  86.6949997  55.0029984  80.6520004  88.4720001
  54.8470001  81.1269989  89.4639969  55.4140015  79.6350021  88.6480026
  53.6310005  80.5000000  87.7839966  53.2529984  81.5130005  87.5260010
  53.7270012  79.6890030  86.4850006  54.1300011  78.6750031  86.6920013
  54.3899994  80.1969986  85.7529984  52.7210007  79.5810013  86.0270004
  52.6090012  79.8639984  88.7379990  52.5149994  80.4710007  89.6630020
  52.9239998  78.8349991  89.0169983  51.6110001  79.8109970  88.2529984
  55.5620003  82.9010010  87.5339966  55.1549988  83.5550003  88.4960022
  55.6839981  83.4369965  86.3140030  55.9700012  82.8769989  85.5400009
  55.6329994  84.8580017  86.1019974  54.9609985  85.3010025  86.8219986
  57.0429993  85.4970016  86.2429962  57.4150009  85.2360001  87.2570038
  56.9550018  86.6039963  86.2009964  58.0620003  85.0199966  85.1790009
  57.7980003  85.4380035  84.1839981  58.0439987  83.9120026  85.1019974
  59.4920006  85.4189987  85.5439987  60.2159996  84.6579971  86.1910019
  59.9280014  86.6250000  85.1110001  59.3839989  87.1419983  84.4499969
  60.8419991  86.9280014  85.3799973  55.0810013  85.1930008  84.7330017
  55.2150002  84.4540024  83.7509995  54.4459991  86.3669968  84.6630020
  54.3520012  86.9110031  85.4929962  54.0349998  87.0139999  83.4520035
  53.8359985  86.2779999  82.6869965  52.7859993  87.8639984  83.7180023
  53.0009995  88.6640015  84.4580002  51.9949989  87.2149963  84.1510010
  52.4010010  88.3259964  82.7839966  55.1329994  87.9469986  82.9800034
  55.7420006  88.6579971  83.7799988  55.4150009  87.9629974  81.6679993
  54.9749985  87.3069992  81.0599976  56.3339996  88.8990021  81.0609970
  56.5410004  89.7030029  81.7519989  57.6759987  88.2519989  80.6289978
  58.4280014  89.0490036  80.4440002  57.5489998  87.6729965  79.6890030
  58.2169991  87.3219986  81.7109985  58.8120003  87.7460022  82.7060013
  58.0589981  85.9919968  81.4980011  57.5610008  85.6719971  80.6920013
  58.4799995  85.3539963  82.1429977  55.6669998  89.5090027  79.8330002
  55.3400002  88.8209991  78.8690033  55.4519997  90.8300018  79.8379974
  55.6889992  91.3679962  80.6429977  55.0429993  91.5989990  78.6839981
  54.6100006  90.9410019  77.9449997  53.9519997  92.6490021  79.0719986
  54.2350006  93.1100006  80.0429993  52.9739990  92.1399994  79.2080002
  53.7830009  93.7570038  78.0579987  54.2840004  95.0429993  78.3259964
  54.7630005  95.2460022  79.2720032  54.2080002  96.0530014  77.3600006
  54.6129990  97.0319977  77.5680008  53.6339989  95.7860031  76.1119995
  53.6269989  96.7969971  75.1230011  53.1580009  96.4660034  74.3529968
  53.1669998  93.5090027  76.8199997  52.7760010  92.5250015  76.6050034
  53.0960007  94.5189972  75.8470001  52.6430016  94.3119965  74.8889999
  56.2830009  92.2160034  78.0380020  57.1119995  92.7990036  78.7340012
  56.4309998  92.0899963  76.7070007  55.7680016  91.5469971  76.1969986
  57.5499992  92.6149979  75.9430008  58.2290001  93.1370010  76.6009979
  58.3240013  91.5059967  75.1910019  59.1769981  91.9329987  74.6210022
  57.6570015  90.9670029  74.4850006  58.8870010  90.5289993  76.1750031
  60.0200005  90.8639984  76.9359970  60.4830017  91.8310013  76.8059998
  60.5410004  89.9589996  77.8669968  61.4020004  90.2320023  78.4599991
  59.9529991  88.6969986  78.0199966  60.3530006  87.9960022  78.7369995
  58.3040009  89.2639999  76.3389969  57.4300003  89.0000000  75.7610016
  58.8370018  88.3509979  77.2500000  58.3750000  87.3809967  77.3590012
  57.0769997  93.6210022  74.9069977  56.1699982  93.3610001  74.1149979
  57.6990013  94.8099976  74.8850021  58.4550018  94.9899979  75.5090027
  57.2700005  95.9300003  74.0849991  56.3510017  95.6869965  73.5709991
  56.9980011  97.1419983  74.9929962  57.9379997  97.5490036  75.4229965
  56.3339996  96.8450012  75.8330002  56.4830017  97.9410019  74.4179993
  58.3110008  96.3249969  73.0400009  59.4650002  96.6190033  73.3560028
  57.8979988  96.3590012  71.7549973  56.9599991  96.1139984  71.5210037
  58.7150002  96.8170013  70.6470032  59.7519989  96.8580017  70.9449997
  58.5769997  95.8180008  69.4609985  57.5019989  95.7119980  69.2009964
  58.9510002  94.8300018  69.8050003  59.3310013  96.1829987  68.1859970
  59.9790001  97.2600021  68.1070023  59.2599983  95.3629990  67.2269974
  58.2669983  98.2450027  70.3170013  57.1399994  98.4800034  69.8679962
  59.1290016  99.2409973  70.5970001  60.0540009  99.0429993  70.9120026
  58.7229996 100.6299973  70.7080002  57.6500015 100.7160034  70.6230011
  59.1479988 101.1969986  72.0889969  58.7799988 102.2399979  72.1930008
  60.2589989 101.2239990  72.1210022  58.6759987 100.3929977  73.3219986
  58.9519997  99.3249969  73.1930008  59.4169998 100.8570023  74.5879974
  59.2659988 101.9440002  74.7610016  60.5079994 100.6740036  74.4869995
  59.0499992 100.3040009  75.4789963  57.1489983 100.4629974  73.4830017
  56.6469994  99.8880005  72.6760025  56.7879982 101.5120010  73.4319992
  56.8429985 100.0439987  74.4660034  59.3260002 101.4980011  69.6009979
  59.2369995 102.7289963  69.6289978  59.9269981 100.8639984  68.5670013
  59.9350014  99.8669968  68.5680008  60.6129990 101.5370026  67.4670029
  59.9420013 102.2789993  67.0619965  60.8680000 100.7740021  66.7470016
  61.8989983 102.2539978  67.8330002  62.2560005 102.4260025  68.9980011
  62.6720009 102.6610031  66.7990036  62.3400002 102.4889984  65.8750000
  63.9440002 103.3889999  66.8679962  64.2350006 103.5650024  65.8430023
  63.8110008 104.7750015  67.5599976  64.7580032 105.3460007  67.4509964
  63.6069984 104.6549988  68.6460037  62.7010002 105.5920029  66.9069977
  62.8849983 106.1809998  65.8369980  61.5229988 105.6740036  67.5690002
  60.7669983 106.1699982  67.1409988  61.4029999 105.1890030  68.4349976
  65.1250000 102.6370010  67.4990005  66.2880020 102.9260025  67.2180023
  64.8369980 101.6500015  68.3619995  63.8660011 101.4980011  68.5289993
  65.7819977 100.9000015  69.1679993  66.7570038 101.3629990  69.1289978
  65.7740021  99.8789978  68.8150024  65.3649979 100.8730011  70.6129990
  66.0999985 100.3850021  71.4729996  64.1679993 101.4069977  70.9189987
  63.5999985 101.8389969  70.2220001  63.5439987 101.3030014  72.2149963
  64.3190002 101.3190002  72.9670029  62.5499992 102.4550018  72.5220032
  61.8839989 102.1880035  73.3700027  61.9129982 102.6579971  71.6350021
  63.2690010 103.7149963  72.9039993  63.4529991 104.0350037  74.2630005
  63.1010017 103.3550034  75.0240021  64.0839996 105.2289963  74.6360016
  64.2149963 105.4670029  75.6809998  64.5630035 106.1009979  73.6500015
  65.0619965 107.0159988  73.9319992  63.7099991 104.6230011  71.9260025
  63.5540009 104.3960037  70.8820038  64.3710022 105.8010025  72.2949982
  64.7330017 106.4810028  71.5380020  62.8190002  99.9749985  72.3679962
  62.0439987  99.5419998  71.5080032  63.0750008  99.3040009  73.4980011
  63.7290001  99.6729965  74.1529999  62.4490013  98.0569992  73.8610001
  61.5359993  97.9390030  73.2959976  63.3569984  96.8140030  73.6470032
  62.8359985  95.8850021  73.9629974  64.2979965  96.9100037  74.2310028
  63.6990013  96.6880035  72.1849976  62.7879982  96.0960007  71.2929993
  61.8419991  95.7300034  71.6669998  63.0769997  96.0100021  69.9240036
  62.3590012  95.5650024  69.2509995  64.2809982  96.5289993  69.4319992
  64.5699997  96.4820023  68.0510025  63.8909988  95.9520035  67.6259995
  64.9169998  97.1800003  71.6829987  65.6200027  97.6500015  72.3539963
  65.1999969  97.1139984  70.3119965  66.1230011  97.5299988  69.9349976
  62.0559998  98.1669998  75.3199997  62.7869987  98.7279968  76.1380005
  60.8619995  97.6660004  75.6809998  60.2919998  97.2249985  74.9919968
  60.3800011  97.6719971  77.0540009  59.5060005  98.3050003  77.0879974
  61.1559982  97.9970016  77.7310028  59.9589996  96.2990036  77.4970016
  59.7010002  95.4069977  76.6910019  59.8349991  96.1070023  78.8170013
  60.1679993  96.7900009  79.4619980  59.1940002  94.9400024  79.3669968
  58.3629990  94.7129974  78.7149963  60.1100006  93.6900024  79.4739990
  60.4160004  93.4000015  78.4459991  59.4980011  92.8529968  79.8730011
  61.3800011  93.8850021  80.3310013  61.1150017  94.4020004  81.2779999
  62.1059990  94.5210037  79.7799988  62.0279999  92.5490036  80.7099991
  61.3940010  91.4919968  80.7620010  63.3370018  92.5780029  81.0439987
  63.8800011  93.4150009  80.9749985  63.7430000  91.7360001  81.4000015
  58.5880013  95.2340012  80.7289963  59.0439987  96.1100006  81.4660034
  57.5250015  94.4950027  81.0859985  57.1959991  93.7919998  80.4609985
  56.8190002  94.6139984  82.3489990  57.4589996  95.0790024  83.0849991
  55.5019989  95.3860016  82.2529984  54.8079987  94.8659973  81.5589981
  54.8310013  95.4840012  83.6380005  55.5229988  95.9459991  84.3740005
  54.5190010  94.4869995  84.0159988  53.9210014  96.1190033  83.5709991
  55.7659988  96.7990036  81.7009964  56.1310005  96.7659988  80.6529999
  56.5200005  97.3280029  82.3229980  54.8260002  97.3919983  81.7210007
  56.5400009  93.1969986  82.8089981  56.1380005  92.3450012  82.0169983
  56.7830009  92.8820038  84.0889969  57.0880013  93.5719986  84.7409973
  56.7630005  91.5169983  84.5650024  56.0260010  90.9810028  83.9850006
  58.1329994  90.7910004  84.3830032  58.2480011  90.5350037  83.3079987
  58.1850014  89.8399963  84.9550018  59.2910004  91.6770020  84.7720032
  59.9550018  92.4469986  83.7979965  59.6349983  92.3919983  82.7679977
  60.9910011  93.3160019  84.1600037  61.4729996  93.9339981  83.4169998
  61.3829994  93.4140015  85.4950027  62.3709984  94.3539963  85.8420029
  62.3930016  94.4100037  86.8000031  59.7249985  91.7509995  86.1070023
  59.2319984  91.1610031  86.8639984  60.7680016  92.6159973  86.4690018
  61.0709991  92.6819992  87.5039978  56.2599983  91.4069977  85.9970016
  56.2919998  92.3610001  86.7770004  55.7449989  90.2210007  86.3779984
  55.6870003  89.4680023  85.7269974  55.2490005  90.0009995  87.7269974
  54.3400002  90.5719986  87.8499985  56.0330009  90.2839966  88.4140015
  54.9150009  88.5599976  88.0049973  54.6310005  87.7850037  87.0930023
  54.9410019  88.1740036  89.2969971  55.1889992  88.8519974  89.9850006
  54.7260017  86.8089981  89.7710037  54.6899986  86.1259995  88.9339981
  53.8240013  86.7969971  90.3629990  55.8489990  86.3619995  90.6679993
  56.5279999  87.1699982  91.3020020  56.0900002  85.0380020  90.7450027
  55.5330009  84.4010010  90.2180023  57.2840004  84.4889984  91.3649979
  57.5139999  85.0559998  92.2549973  57.1529999  82.9769974  91.7289963
  58.1090012  82.5960007  92.1490021  56.9160004  82.3929977  90.8140030
  56.0789986  82.7020035  92.7500000  56.1380005  83.2770004  94.0279999
  56.9659996  83.9280014  94.2679977  55.1619987  82.9980011  94.9960022
  55.2130013  83.4639969  95.9690018  54.1189995  82.1149979  94.6940002
  53.0890007  81.8550034  95.6250000  53.2700005  82.3430023  96.4309998
  55.0540009  81.7819977  92.4830017  55.0120010  81.2870026  91.5240021
  54.0870018  81.4830017  93.4489975  53.2929993  80.7880020  93.2190018
  58.4469986  84.6480026  90.3899994  58.5830002  83.8850021  89.4329987
  59.2919998  85.6780014  90.5879974  59.1619987  86.3069992  91.3509979
  60.3510017  86.0199966  89.6559982  59.9939995  85.8690033  88.6480026
  60.7509995  87.5120010  89.8339996  61.5190010  87.7750015  89.0749969
  61.2070007  87.6520004  90.8369980  59.5859985  88.5240021  89.6959991
  58.8330002  88.3130035  90.4860001  60.0870018  89.9589996  89.9229965
  60.8269997  90.2379990  89.1429977  60.5730019  90.0479965  90.9179993
  59.2410011  90.6770020  89.8789978  58.8810005  88.4189987  88.3339996
  58.4239998  87.4150009  88.2030029  59.6040001  88.5950012  87.5090027
  58.0740013  89.1800003  88.2630005  61.5970001  85.1520004  89.8209991
  62.3089981  84.8590012  88.8590012  61.8689995  84.7020035  91.0589981
  61.2859993  84.9489975  91.8290024  63.0610008  83.9520035  91.3840027
  63.2019997  83.1979980  90.6230011  64.3290024  84.8479996  91.4570007
  64.5000000  85.2910004  90.4530029  65.2160034  84.2109985  91.6620026
  64.2300034  86.0070038  92.4820023  63.3860016  85.8369980  93.1849976
  64.0250015  86.9550018  91.9410019  65.4940033  86.1719971  93.3140030
  66.2249985  87.1809998  93.1259995  65.7699966  85.2959976  94.1770020
  62.8619995  83.2020035  92.6900024  61.8089981  83.2789993  93.3300018
  63.8750000  82.4209976  93.1159973  64.7060013  82.3359985  92.5729980
  63.8489990  81.5569992  94.2919998  63.0919991  80.8040009  94.1259995
  65.1930008  80.8610001  94.5230026  65.9550018  81.5889969  94.8740005
  65.6660004  80.3010025  93.3010025  66.5490036  79.9609985  93.4629974
  65.0559998  79.7139969  95.5380020  64.2910004  78.9840012  95.1959991
  64.7549973  80.0930023  96.5390015  66.0210037  79.1750031  95.6569977
  63.5070000  82.2870026  95.5770035  62.7130013  81.8020020  96.3820038
  64.0729980  83.4909973  95.8010025  64.6859970  83.9250031  95.1449966
  63.9189987  84.1719971  97.0699997  63.5480003  83.4950027  97.8259964
  65.2919998  84.7080002  97.5490036  65.1880035  85.0429993  98.6029968
  65.5889969  85.5889969  96.9410019  66.4189987  83.6620026  97.4499969
  66.6500015  83.4850006  96.3779984  66.0469971  82.7009964  97.8669968
  67.9339981  84.1500015  98.3170013  68.9580002  82.8259964  97.6279984
  68.9720001  82.8570023  96.5169983  68.5770035  81.8290024  97.9369965
  70.0070038  82.9169998  97.9820023  62.9440002  85.3399963  96.9840012
  62.5789986  85.9120026  98.0100021  62.4550018  85.6999969  95.7750015
  62.7130013  85.1859970  94.9609985  61.6910019  86.9209976  95.5690002
  61.1990013  87.1699982  96.4970016  62.5730019  88.1289978  95.1389999
  61.9799995  88.9570007  94.6959991  63.3370018  87.8170013  94.3939972
  63.2610016  88.6800003  96.3489990  62.5600014  89.5479965  97.2009964
  61.5460014  89.8320007  96.9599991  63.1510010  90.0210037  98.3759995
  62.6049995  90.6829987  99.0329971  64.4430008  89.6159973  98.7109985
  65.0110016  90.0759964  99.9110031  65.9619980  89.9550018  99.8529968
  64.5800018  88.3209991  96.6699982  65.1259995  87.6589966  96.0130005
  65.1630020  88.7669983  97.8629990  66.1620026  88.4479980  98.1210022
  60.5519981  86.7890015  94.5800018  60.6199989  86.1060028  93.5579987
  59.4459991  87.4769974  94.9000015  59.3989983  87.9889984  95.7539978
  58.2630005  87.5680008  94.0869980  58.4710007  87.2570038  93.0729980
  57.1409988  86.7379990  94.7259979  56.8100014  87.1910019  95.6839981
  57.5309982  85.7239990  94.9599991  56.2639999  86.6480026  94.0490036
  57.8269997  89.0139999  94.0709991  58.2280006  89.7900009  94.9329987
  56.9939995  89.4300003  93.1060028  56.6819992  88.8030014  92.3960037
  56.5089989  90.8020020  93.0729980  57.2560005  91.4710007  93.4749985
  55.5719986  90.8359985  93.6080017  56.2439995  91.2470016  91.6729965
  55.7830009  90.4690018  90.8399963  56.5200005  92.5299988  91.3919983
  56.9169998  93.1250000  92.0869980  56.2849998  93.1439972  90.0979996
  56.2319984  92.3730011  89.3440018  55.0040016  93.9869995  90.0210037
  54.9490013  94.4779968  89.0260010  53.7719994  93.0680008  90.1320038
  53.7309990  92.5810013  91.1299973  53.8050003  92.2760010  89.3539963
  52.8390007  93.6559982  89.9970016  54.9819984  95.0820007  91.1090012
  55.8339996  95.7860031  90.9940033  55.0270004  94.6350021  92.1250000
  54.0410004  95.6679993  91.0339966  57.4720001  94.0159988  89.7330017
  58.1949997  94.5370026  90.5849991  57.7169991  94.2009964  88.4270020
  57.1769981  93.7340012  87.7300034  58.7369995  95.1169968  87.9670029
  59.7039986  94.6709976  88.1449966  58.5979996  96.0630035  88.4700012
  58.6160011  95.3939972  86.4980011  57.7260017  94.9010010  85.8040009
  59.5299988  96.2200012  85.9899979  60.2029991  96.6480026  86.5869980
  59.5480003  96.6299973  84.6070023  59.3639984  95.7600021  83.9940033
  58.4869995  97.7149963  84.2770004  57.4869995  97.2360001  84.3529968
  58.5919991  98.0869980  83.2350006  58.5219994  98.8050003  85.2060013
  59.3650017  99.2549973  85.1080017  60.9210014  97.1480026  84.2289963
  61.7089996  97.5650024  85.0790024  61.2330017  97.1409988  82.9219971
  60.5600014  96.8290024  82.2559967  62.5070000  97.5729980  82.3919983
  62.9280014  98.3069992  83.0630035  63.5169983  96.3970032  82.2679977
  62.9980011  95.5469971  81.7740021  63.7729988  96.0719986  83.2990036
  64.8119965  96.7009964  81.4749985  65.2949982  97.6070023  81.8990021
  64.5830002  96.8929977  80.4049988  65.8079987  95.5459976  81.5279999
  66.9789963  95.7659988  81.9309998  65.4339981  94.3870010  81.2040024
  62.3149986  98.2799988  81.0569992  61.4990005  97.8700027  80.2310028
  63.0439987  99.3850021  80.8290024  63.6619987  99.7109985  81.5400009
  63.0390015 100.1330032  79.5869980  62.4720001  99.6009979  78.8359985
  62.4410019 101.5510025  79.7890015  63.0330009 102.0709991  80.5719986
  61.4059982 101.4410019  80.1770020  62.3950005 102.4530029  78.5329971
  63.4189987 102.5260010  78.1080017  61.4669991 101.8880005  77.4469986
  60.4269981 101.8099976  77.8300018  61.8030014 100.8789978  77.1240005
  61.4599991 102.5559998  76.5599976  61.9589996 103.8799973  78.9029999
  62.6409988 104.3160019  79.6640015  60.9269981 103.8769989  79.3130035
  61.9760017 104.5309982  78.0029984  64.4700012 100.2409973  79.0839996
  65.3610001 100.6770020  79.8140030  64.7310028  99.8199997  77.8330002
  63.9939995  99.4769974  77.2549973  66.0410004  99.8010025  77.2180023
  66.7689972 100.2419968  77.8820038  66.4690018  98.3460007  76.8750000
  65.6869965  97.9049988  76.2210007  66.4820023  97.7570038  77.8170013
  67.8389969  98.1729965  76.1750031  67.8960037  98.8499985  75.2959976
  68.9970016  98.4980011  77.1240005  68.9459991  97.8619995  78.0329971
  68.9520035  99.5640030  77.4339981  69.9729996  98.3150024  76.6259995
  68.0120010  96.7500000  75.6309967  67.1689987  96.4820023  74.9589996
  68.0459976  96.0230026  76.4710007  68.9589996  96.6610031  75.0569992
  66.0419998 100.6230011  75.9380035  65.1320038 100.5240021  75.1129990
  67.0940018 101.4380035  75.7269974  67.7659988 101.5800018  76.4489975
  67.3949966 102.0049973  74.4280014  66.6539993 101.6660004  73.7190018
  67.4069977 103.5619965  74.4150009  68.1719971 103.9479980  75.1220016
  66.4100037 103.9369965  74.7310028  67.6900024 104.0910034  73.0250015
  68.7620010 104.9570007  72.7570038  69.3759995 105.3040009  73.5749969
  69.0630035 105.3339996  71.4380035  69.9010010 105.9879990  71.2480011
  68.2969971 104.8359985  70.3730011  68.6169968 105.1309967  69.0260010
  69.3600006 105.7379990  69.0110016  66.9000015 103.6520004  71.9530029
  66.0579987 103.0070038  72.1569977  67.1999969 104.0130005  70.6370010
  66.5930023 103.6490021  69.8219986  68.7330017 101.4660034  73.9349976
  69.7689972 101.6060028  74.5920029  68.7180023 100.8290024  72.7470016
  67.8529968 100.6979980  72.2669983  69.9059982 100.3339996  72.0899963
  70.7939987 100.7279968  72.5640030  69.9359970  98.7949982  72.2269974
  69.0729980  98.3379974  71.6959991  69.7919998  98.5770035  73.3069992
  71.2559967  98.1309967  71.7890015  72.0899963  98.6480026  72.3099976
  71.4130020  98.2509995  70.6959991  71.2570038  96.6429977  72.1569977
  70.5849991  96.0739975  71.4789963  70.9079971  96.5339966  73.2060013
  72.6480026  96.1070023  72.0380020  73.3700027  96.6559982  71.6169968
  73.0090027  94.9499969  72.5830002  72.1299973  94.1370010  73.1250000
  71.1630020  94.3889999  73.1320038  72.4160004  93.3750000  73.7060013
  74.2760010  94.6060028  72.6250000  74.9869995  95.2559967  72.3539963
  74.5510025  93.7730026  73.1039963  69.8669968 100.7330017  70.6090012
  69.1019974 100.1320038  69.8440018  70.6230011 101.7149963  70.1169968
  71.5400009 102.5179977  70.9209976  72.4049988 101.8880005  71.2190018
  71.0360031 102.9179993  71.8270035  70.8270035 101.9290009  68.6859970
  69.8519974 102.0810013  68.2480011  71.6989975 103.1959991  68.5680008
  71.1399994 103.9889984  68.0260010  72.6449966 103.0149994  68.0159988
  71.9990005 103.6549988  70.0039978  73.0800018 103.8710022  70.1470032
  71.4209976 104.5759964  70.2320023  71.4489975 100.7379990  67.9589996
  72.2020035  99.9609985  68.5490036  71.1490021 100.5699997  66.6589966
  70.5189972 101.1839981  66.1900024  71.7500000  99.5339966  65.8430023
  71.6859970  98.6070023  66.3919983  70.9589996  99.3720016  64.5299988
  70.9240036 100.3539963  64.0110016  69.9140015  99.0979996  64.7890015
  71.5059967  98.3259964  63.5449982  72.5309982  98.6129990  63.2280006
  71.5660019  96.9229965  64.1569977  70.5619965  96.6100006  64.5139999
  72.2799988  96.8919983  65.0070038  71.9140015  96.1959991  63.3919983
  70.6269989  98.3040009  62.2989998  70.6309967  99.2959976  61.7999992
  69.5810013  98.0439987  62.5680008  71.0059967  97.5419998  61.5849991
  73.2289963  99.7839966  65.5490036  73.6169968 100.8509979  65.0630035
  74.0899963  98.8010025  65.8880005  73.7369995  97.9580002  66.2870026
  75.5309982  98.8119965  65.7089996  75.8669968  97.8649979  66.1029968
  75.9800034  98.8830032  64.2239990  77.0780029  99.0360031  64.1539993
  75.4779968  99.7310028  63.7099991  75.6600037  97.5910034  63.4900017
  75.3440018  96.5490036  64.1240005  75.8119965  97.5749969  62.2379990
  76.2279968  99.8199997  66.6190033  77.3720016 100.2310028  66.4100037
  75.5299988 100.2129974  67.6989975  74.5970001  99.8820038  67.8190002
  76.0309982 101.0510025  68.7500000  76.3960037 101.9570007  68.2900009
  74.8990021 101.4059982  69.7220001  74.5130005 100.4990005  70.2360001
  74.0569992 101.8509979  69.1490021  75.2190018 102.1449966  70.4869995
  77.1689987 100.4459991  69.5530014  77.2860031  99.2330017  69.7360001
  78.0120010 101.3290024  70.1149979  77.9820023 102.2959976  69.8759995
  78.9749985 100.9459991  71.1240005  79.2710037  99.9160004  70.9889984
  80.2529984 101.8320007  71.0299988  80.7369995 101.5970001  70.0579987
  80.9720001 101.5319977  71.8219986  79.9639969 103.6320038  71.1399994
  79.7570038 103.6460037  72.4489975  78.3590012 101.0630035  72.5159988
  79.0609970 100.9950027  73.5159988  77.0260010 101.2310028  72.6360016
  76.4250031 101.2080002  71.8410034  76.4079971 101.5680008  73.9010010
  76.9169998 101.0220032  74.6809998  76.5149994 103.0979996  74.1770020
  77.5879974 103.3799973  74.1210022  76.1910019 103.3040009  75.2200012
  75.7440033 103.9869995  73.2460022  76.1230011 104.3720016  71.9850006
  77.0540009 104.0820007  71.5210037  75.1640015 105.1920013  71.4420013
  75.2149963 105.7009964  70.6110001  74.1429977 105.3489990  72.3339996
  74.4570007 104.5849991  73.4840012  73.5589981 104.5520020  74.5530014
  73.7740021 103.9830017  75.4459991  72.3759995 105.2880020  74.4530029
  71.6679993 105.2779999  75.2689972  72.9769974 106.0920029  72.2450027
  72.7539978 106.6930008  71.3759995  72.0979996 106.0550003  73.3270035
  71.1940002 106.6439972  73.2939987  74.9369965 101.1529999  73.9560013
  74.2870026 100.9160004  72.9349976  74.3880005 101.0739975  75.1809998
  74.9720001 101.1500015  75.9860001  72.9690018 101.0049973  75.4339981
  72.4619980 101.6289978  74.7129974  72.4219971  99.5660019  75.3519974
  72.8470001  98.9309998  76.1589966  72.6900024  99.1119995  74.3740005
  71.3140030  99.5660019  75.4420013  72.6770020 101.5739975  76.8199997
  73.5319977 101.5660019  77.7099991  71.4520035 102.0869980  77.0329971
  70.7829971 102.0899963  76.2939987  71.0049973 102.5849991  78.3239975
  71.7310028 102.3489990  79.0879974  70.7259979 104.1129990  78.3349991
  70.2200012 104.3949966  79.2829971  70.0339966 104.3499985  77.4980011
  71.9769974 105.0070038  78.2030029  72.5360031 104.6859970  77.2979965
  71.5790024 106.4789963  78.0070038  71.0220032 106.8550034  78.8919983
  70.9329987 106.5930023  77.1100006  72.4840012 107.1090012  77.8659973
  72.9199982 104.8590012  79.4059982  73.2679977 103.8069992  79.4950027
  72.4029999 105.1439972  80.3470001  73.8119965 105.5100021  79.2819977
  69.7279968 101.8700027  78.7170029  68.7149963 101.9430008  78.0169983
  69.7559967 101.1470032  79.8560028  70.5810013 101.1299973  80.4160004
  68.6200027 100.4029999  80.3769989  68.9010010  99.3600006  80.4000015
  67.7460022 100.5879974  79.7699966  68.2919998 100.8059998  81.7910004
  69.1719971 100.9540024  82.6350021  67.0009995 100.9690018  82.1070023
  66.2990036 100.8799973  81.4049988  66.5589981 101.2949982  83.4530029
  67.3850021 101.2139969  84.1439972  65.9800034 102.6979980  83.5920029
  65.0449982 102.7990036  83.0009995  65.6849976 102.9700012  85.0780029
  66.5889969 102.7590027  85.6890030  64.8460007 102.3460007  85.4530029
  65.4160004 104.0390015  85.2180023  67.0039978 103.7249985  83.0759964
  67.1589966 103.6279984  81.9810028  67.9749985 103.5630035  83.5920029
  66.6539993 104.7570038  83.2900009  65.5189972 100.2750015  83.8769989
  64.5230026 100.0709991  83.1780014  65.7279968  99.5989990  85.0230026
  66.5240021  99.8130035  85.5839996  64.7990036  98.6250000  85.5579987
  63.9059982  98.6460037  84.9509964  65.3420029  97.1699982  85.4530029
  65.8059998  97.0309982  84.4520035  64.4720001  96.4820023  85.5139999
  66.3239975  96.7419968  86.5360031  67.4889984  96.4000015  86.1819992
  65.9270020  96.6490021  87.7269974  64.3460007  99.0609970  86.9560013
  65.0999985  99.6579971  87.7300034  63.0579987  98.8239975  87.2649994
  62.4879990  98.3379974  86.6070023  62.4129982  99.2379990  88.4990005
  63.1640015  99.4229965  89.2529984  61.5209999 100.4759979  88.3479996
  60.6930008 100.2639999  87.6389999  60.9249992 100.8820038  89.7119980
  61.7330017 101.0419998  90.4570007  60.2229996 100.1129990  90.0989990
  60.3600006 101.8330002  89.6070023  62.3409996 101.6470032  87.7839966
  62.6990013 101.4410019  86.7519989  63.2220001 101.8420029  88.4329987
  61.7210007 102.5680008  87.7529984  61.5470009  98.0839996  88.9789963
  60.7700005  97.5139999  88.2109985  61.6660004  97.6770020  90.2610016
  62.3209991  98.0940018  90.8860016  61.0190010  96.4820023  90.7649994
  60.1300011  96.2900009  90.1829987  61.9360008  95.2160034  90.7450027
  61.3050003  94.3020020  90.7279968  62.5740013  95.1750031  91.6539993
  62.8629990  95.1819992  89.5250015  62.5499992  94.5699997  88.5000000
  64.0550003  95.8079987  89.6500015  64.6490021  95.9120026  88.8519974
  64.2170029  96.3679962  90.4619980  60.5680008  96.7080002  92.2040024
  61.2410011  97.3629990  93.0009995  59.4090004  96.1439972  92.5770035
  58.8660011  95.6269989  91.9199982  58.9570007  96.0899963  93.9499969
  59.7350006  96.4359970  94.6139984  57.6769981  96.9410019  94.1699982
  56.8540001  96.5790024  93.5169983  57.8889999  97.9990005  93.9039993
  57.2330017  96.9000015  95.6100006  56.0929985  96.1770020  95.9970016
  55.5279999  95.6320038  95.2549973  55.6889992  96.1510010  97.3389969
  54.8100014  95.5940018  97.6279984  56.4160004  96.8570023  98.3040009
  55.9799995  96.8460007  99.6490021  56.5250015  97.4530029 100.1559982
  57.9599991  97.5989990  96.5869980  58.8370018  98.1579971  96.2979965
  57.5569992  97.5800018  97.9290009  58.1259995  98.1279984  98.6650009
  58.7200012  94.6240005  94.2669983  57.8470001  93.9759979  93.6829987
  59.5299988  94.0609970  95.1819992  60.2019997  94.5979996  95.6859970
  59.5509987  92.6320038  95.4260025  58.6739998  92.1900024  94.9769974
  60.7589989  91.9130020  94.8170013  60.7130013  90.8349991  95.0820007
  60.6839981  91.9929962  93.2779999  60.7840004  93.0429993  92.9300003
  59.7150002  91.5899963  92.9140015  61.5040016  91.3980026  92.8229980
  62.0830002  92.4950027  95.3440018  62.1520004  92.3820038  96.4469986
  62.1739998  93.5729980  95.0920029  62.9449997  91.9599991  94.8919983
  59.4230003  92.3209991  96.9059982  59.8250008  93.0820007  97.7860031
  58.8129997  91.1679993  97.2099991  58.5029984  90.5800018  96.4670029
  58.5870018  90.6750031  98.5439987  59.0709991  91.3209991  99.2610016
  57.0760002  90.6210022  98.8610001  56.5680008  89.8840027  98.2040024
  56.6599998  91.6210022  98.6139984  56.7589989  90.3229980 100.3349991
  57.4119987  90.9499969 100.9789963  56.9959984  89.2610016 100.5579987
  55.2869987  90.6309967 100.6770020  54.6370010  89.9820023 100.0520020
  55.0880013  91.6849976 100.3880005  54.9459991  90.4359970 102.1650009
  55.6510010  91.0159988 102.7979965  55.0219994  89.3619995 102.4359970
  53.5620003  90.9000015 102.4619980  52.8629990  90.3960037 101.8799973
  53.4679985  91.9179993 102.2740021  53.3310013  90.7369995 103.4629974
  59.2369995  89.3099976  98.6600037  59.1479988  88.4619980  97.7679977
  59.9920006  89.1050034  99.7500000  60.0309982  89.7919998 100.4720001
  60.7589989  87.9089966 100.0019989  61.3540001  87.7279968  99.1190033
  61.7410011  88.1620026 101.1669998  61.1430016  88.4649963 102.0530014
  62.3689995  89.0339966 100.8840027  62.6479988  86.9729996 101.5410004
  63.1980019  86.6139984 100.6449966  62.0429993  86.1309967 101.9400024
  63.6650009  87.3649979 102.6179962  63.5989990  86.9250031 103.7689972
  64.6439972  88.2210007 102.2440033  65.3720016  88.4270020 102.8980026
  64.6050034  88.6640015 101.3479996  59.9129982  86.6569977 100.2210007
  58.9039993  86.6610031 100.9290009  60.3129997  85.5390015  99.5970001
  61.1380005  85.5709991  99.0390015  59.6310005  84.2649994  99.6780014
  58.5750008  84.4400024  99.8229980  59.8180008  83.4420013  98.3750000
  59.2970009  82.4660034  98.4800034  60.9010010  83.2330017  98.2399979
  59.2949982  84.1640015  97.1100006  59.7509995  85.1770020  97.0650024
  58.1969986  84.3099976  97.1890030  59.6510010  83.4660034  95.7880020
  60.7369995  83.2320023  95.7620010  59.3959999  84.1100006  94.9199982
  58.8510017  82.2070007  95.7060013  58.1689987  81.9929962  96.4059982
  59.0019989  81.2829971  94.7699966  59.9169998  81.3270035  93.8310013
  60.5589981  82.0930023  93.7880020  59.9710007  80.5640030  93.1869965
  58.1819992  80.2519989  94.7669983  57.4430008  80.2239990  95.4400024
  58.3310013  79.5439987  94.0759964  60.1399994  83.4680023 100.8769989
  61.3349991  83.4589996 101.1760025  59.2420006  82.8010025 101.6230011
  58.2799988  82.7910004 101.3610001  59.5940018  81.9720001 102.7620010
  60.2430000  82.5719986 103.3830032  58.3160019  81.7190018 103.6179962
  57.5229988  81.3190002 102.9499969  57.9550018  82.6949997 104.0080032
  58.4710007  80.7399979 104.7750015  58.7669983  79.5390015 104.5390015
  58.2639999  81.1660004 105.9449997  60.4519997  80.7419968 102.3820038
  60.2820015  80.1279984 101.3280029  61.4469986  80.3769989 103.2170029
  61.6030006  80.8590012 104.0759964  62.3769989  79.3020020 102.9100037
  62.5660019  79.3209991 101.8470001  63.7550011  79.5120010 103.5989990
  64.2979965  80.2900009 103.0220032  64.3710022  78.5899963 103.5250015
  63.6930008  79.9649963 105.0240021  63.5900002  79.1770020 106.1419983
  63.5369987  78.0979996 106.1210022  63.5390015  79.9749985 107.2630005
  63.4500008  79.6829987 108.1900024  63.6100006  81.2880020 106.8929977
  63.7050018  81.3290024 105.4810028  63.7820015  82.5630035 104.8310013
  63.8619995  82.6269989 103.7559967  63.7690010  83.7249985 105.6050034
  63.8400002  84.6859970 105.1190033  63.5900002  82.4440002 107.6589966
  63.5169983  82.4069977 108.7360001  63.6739998  83.6689987 106.9929962
  63.6710014  84.5889969 107.5589981  61.8699989  77.8830032 103.1839981
  62.4399986  76.9189987 102.6669998  60.7840004  77.7030029 103.9599991
  60.2449989  78.4779968 104.2809982  60.2229996  76.3960037 104.2480011
  60.9430008  75.6179962 104.0400009  59.7540016  76.3000031 105.7269974
  59.1409988  75.3860016 105.8809967  59.1310005  77.1859970 105.9749985
  60.9150009  76.2239990 106.7099991  62.0419998  75.8010025 106.3399963
  60.6640015  76.4710007 107.9229965  59.0299988  76.1330032 103.3339996
  58.7680016  74.9960022 102.9359970  58.2970009  77.1910019 102.9440002
  58.4869995  78.0820007 103.3499985  57.2890015  77.1190033 101.9089966
  57.4570007  76.2399979 101.3059998  55.8580017  77.0390015 102.5279999
  55.6679993  77.9459991 103.1409988  55.8160019  76.1520004 103.1949997
  54.7519989  76.9069977 101.4800034  54.9840012  76.8870010 100.2689972
  53.4910011  76.8030014 101.9580002  52.7439995  76.6859970 101.3030014
  53.3250008  76.8000031 102.9440002  57.4519997  78.3219986 100.9869995
  57.1370010  79.4520035 101.3550034  57.8860016  78.1060028  99.7239990
  58.0880013  77.1859970  99.3949966  58.2309990  79.2129974  98.8450012
  58.6679993  80.0059967  99.4349976  59.2770004  78.8020020  97.7750015
  59.5509987  79.7089996  97.1949997  58.8390007  78.0630035  97.0699997
  60.5789986  78.2220001  98.3629990  60.3769989  77.2040024  98.7610016
  60.8940010  78.8509979  99.2220001  61.9389992  78.1660004  97.1589966
  62.9070015  76.9240036  98.0569992  62.3689995  75.9530029  98.0930023
  63.1069984  77.2389984  99.1039963  63.8829994  76.7480011  97.5559998
  57.0130005  79.8140030  98.1559982  57.1069984  80.8209991  97.4540024
  55.8190002  79.2249985  98.3600006  55.7500000  78.3789978  98.8840027
  54.5690002  79.8249969  97.9410019  54.7050018  80.2760010  96.9700012
  53.4500008  78.7570038  97.8450012  52.5309982  79.2340012  97.4430008
  53.2140007  78.3799973  98.8629990  53.8139992  77.5419998  96.9629974
  52.9519997  76.8399963  96.9720001  54.6590004  76.9990005  97.4359970
  54.2459984  77.9410019  95.2389984  52.5660019  78.3399963  94.6809998
  52.1739998  79.2409973  95.1999969  51.8660011  77.5009995  94.8769989
  52.5499992  78.5510025  93.5899963  54.1360016  80.9250031  98.9160004
  53.3759995  81.8320007  98.5699997  54.6539993  80.8870010 100.1620026
  55.3209991  80.1859970 100.4010010  54.4269981  81.9029999 101.1689987
  53.4869995  82.3919983 100.9589996  54.3180008  81.3130035 102.5989990
  54.2919998  82.1360016 103.3450012  55.2169991  80.6959991 102.8140030
  53.0429993  80.4739990 102.8180008  53.0880013  79.5699997 102.1740036
  52.1669998  81.0780029 102.5000000  52.8549995  80.0719986 104.2860031
  52.7599983  80.9840012 104.9130020  53.7130013  79.4580002 104.6360016
  51.5960007  79.2659988 104.3720016  51.0870018  79.0530014 103.5380020
  51.0550003  78.8529968 105.5130005  51.5960007  79.0989990 106.6859970
  52.4269981  79.6529999 106.7389984  51.1209984  78.8199997 107.5199966
  49.9309998  78.1650009 105.4810028  49.5029984  77.9489975 104.6029968
  49.5270004  77.8379974 106.3359985  55.4879990  82.9950027 101.1500015
  56.5849991  82.8440018 100.6080017  55.1710014  84.1500015 101.7620010
  54.2840004  84.2649994 102.2020035  56.0769997  85.2740021 101.8580017
  56.9599991  85.0920029 101.2630005  55.4189987  86.6019974 101.3960037
  56.1660004  87.4240036 101.4179993  54.5789986  86.8619995 102.0770035
  54.8919983  86.5149994  99.9869995  55.6870003  85.9879990  98.9540024
  56.6850014  85.6350021  99.1669998  55.1930008  85.9049988  97.6480026
  55.8069992  85.4759979  96.8700027  53.9099998  86.3789978  97.3489990
  53.5349998  86.3219986  96.3379974  53.6069984  86.9970016  99.6740036
  52.9910011  87.4209976 100.4530029  53.1180000  86.9339981  98.3629990
  52.1349983  87.3170013  98.1330032  56.5509987  85.4629974 103.2900009
  55.8919983  85.0729980 104.2559967  57.7260017  86.0970001 103.4499969
  58.2529984  86.3639984 102.6480026  58.2120018  86.6090012 104.7259979
  57.7830009  86.0100021 105.5149994  59.7420006  86.5579987 104.9150009
  59.9599991  86.5630035 106.0049973  60.4430008  87.6510010 104.3270035
  61.3709984  87.5110016 104.5279999  60.3089981  85.2620010 104.3180008
  60.2089996  85.2570038 103.2119980  59.7770004  84.3789978 104.7330017
  61.3880005  85.1620026 104.5609970  57.6769981  88.0299988 104.8990021
  56.9080009  88.5429993 104.0830002  58.0610008  88.7210007 105.9909973
  58.6720009  88.3229980 106.6709976  57.5929985  90.0680008 106.2570038
  56.6030006  90.1920013 105.8430023  57.5439987  90.2460022 107.8030014
  58.5730019  90.2809982 108.2200012  57.0270004  89.3639984 108.2369995
  56.7680016  91.4769974 108.2529984  55.7820015  91.8769989 107.5790024
  57.0600014  91.9800034 109.3730011  58.5169983  91.1060028 105.5920029
  58.3470001  92.3199997 105.7369995  59.5200005  90.6480026 104.8069992
  59.6419983  89.6689987 104.6630020  60.4729996  91.5270004 104.1589966
  60.5130005  92.4580002 104.7050018  61.8959999  90.9059982 104.1979980
  61.9449997  89.9850006 103.5780029  62.1539993  90.6299973 105.2429962
  62.9220009  91.8949966 103.7119980  63.5330009  91.7620010 102.4540024
  63.2750015  90.9290009 101.8180008  64.4599991  92.7139969 102.0100021
  64.9199982  92.6019974 101.0390015  64.7850037  93.8010025 102.8290024
  65.7080002  94.7669983 102.3990021  65.9639969  94.5400009 101.5019989
  63.2669983  92.9840012 104.5289993  62.8069992  93.0920029 105.5000000
  64.1900024  93.9390030 104.0859985  64.4520035  94.7750015 104.7180023
  60.0569992  91.8639984 102.7210007  59.9790001  91.0049973 101.8389969
  59.7960014  93.1569977 102.4499969  59.7949982  93.8389969 103.1780014
  59.5589981  93.6839981 101.1139984  59.7630005  92.9120026 100.3860016
  58.1090012  94.1930008 100.8759995  57.4249992  93.3219986 100.9609985
  58.0110016  94.5950012  99.8440018  57.7169991  95.1849976 101.8349991
  56.8310013  95.4739990 101.6060028  60.5480003  94.7919998 100.8199997
  60.9959984  95.5179977 101.7119980  60.9620018  94.9240036  99.5469971
  60.5979996  94.3369980  98.8270035  62.0050011  95.8570023  99.1559982
  62.0070000  96.6620026  99.8769989  63.4059982  95.2330017  99.2340012
  63.5410004  94.8529968 100.2689972  64.4359970  96.1780014  98.9779968
  65.2549973  95.7249985  99.1959991  63.5880013  94.0569992  98.2620010
  63.5519981  94.4020004  97.2070007  62.7929993  93.2959976  98.4160004
  64.5680008  93.5599976  98.4290009  61.7270012  96.4589996  97.7750015
  61.3849983  95.7300034  96.8349991  61.8300018  97.7760010  97.5719986
  61.7579994  98.8050003  98.6129990  62.6300011  98.7160034  99.2969971
  60.8089981  98.6910019  99.1790009  61.9599991  98.3479996  96.2460022
  61.3590012  97.8069992  95.5289993  61.4690018  99.7939987  96.4199982
  60.3670006  99.8180008  96.2839966  61.9259987 100.5009995  95.6959991
  61.7929993 100.1500015  97.8769989  62.8170013 100.5770035  97.9290009
  61.0760002 100.8850021  98.3000031  63.4179993  98.2740021  95.8050003
  64.3330002  98.6490021  96.5429993  63.6599998  97.7829971  94.5839996
  62.9039993  97.5439987  93.9789963  64.9980011  97.5609970  94.0640030
  65.6699982  98.2699966  94.5240021  65.5559998  96.1510010  94.3229980
  65.6370010  96.0159988  95.4229965  66.8430023  95.9359970  93.7490005
  67.3820038  96.6819992  94.0189972  64.6220016  95.0630035  93.7659988
  64.5660019  95.1259995  92.6579971  63.5979996  95.1620026  94.1869965
  65.0090027  94.0559998  94.0319977  64.9680023  97.9039993  92.5930023
  63.9959984  97.6439972  91.8850021  66.0080032  98.5749969  92.0820007
  66.8300018  98.7580032  92.6169968  65.9540024  99.1060028  90.7350006
  65.1419983  99.8150024  90.6699982  65.8710022  98.2809982  90.0429993
  67.2180023  99.8399963  90.4250031  67.8779984 100.3720016  91.3199997
  67.5790024  99.8639984  89.1350021  66.9400024  99.5210037  88.4509964
  68.8870010 100.2519989  88.6650009  69.3270035 100.9300003  89.3820038
  69.8440018  99.0479965  88.4260025  70.8310013  99.4020004  88.0589981
  69.4140015  98.3560028  87.6689987  70.0579987  98.2870026  89.7020035
  71.0749969  98.6669998  90.5930023  71.7220001  99.4940033  90.3430023
  71.2229996  98.0139999  91.8229980  71.9879990  98.3300018  92.5159988
  70.3639984  96.9599991  92.1569977  70.4599991  96.4639969  93.1110001
  69.2330017  97.1949997  90.0309982  68.4530029  96.8919983  89.3479996
  69.3730011  96.5439987  91.2600021  68.7119980  95.7310028  91.5210037
  68.7949982 100.9909973  87.3420029  68.0709991 100.6019974  86.4219971
  69.5879974 102.0690002  87.2200012  70.1409988 102.3489990  88.0009995
  69.9219971 102.6890030  85.9550018  69.1719971 102.4540024  85.2139969
  70.0849991 104.2060013  86.0350037  70.8440018 104.4550018  86.8059998
  70.5579987 104.7750015  84.6809998  69.8499985 104.5049973  83.8690033
  71.5660019 104.3949966  84.4100037  70.6179962 105.8830032  84.7379990
  68.7490005 104.8430023  86.4570007  68.4250031 104.4810028  87.4560013
  67.9550018 104.6050034  85.7180023  68.8529968 105.9479980  86.5110016
  71.2399979 102.0609970  85.5260010  72.2570038 102.1689987  86.2170029
  71.2389984 101.3499985  84.3880005  70.4100037 101.2710037  83.8410034
  72.3669968 100.5719986  83.9120026  73.2139969 100.7040024  84.5690002
  72.0989990  99.0729980  83.7799988  71.2480011  98.9000015  83.0879974
  71.7639999  98.4940033  85.0329971  72.6100006  98.3479996  85.4629974
  73.3430023  98.3349991  83.2570038  74.2379990  98.6070023  83.8560028
  73.5449982  98.5950012  82.1959991  73.1959991  97.2350006  83.3069992
  72.7779999 101.0619965  82.5490036  72.0250015 101.0169983  81.5719986
  74.0240021 101.5329971  82.4390030  74.6210022 101.5520020  83.2379990
  74.6399994 101.8130035  81.1719971  73.8830032 101.9589996  80.4150009
  75.5139999 103.0690002  81.2330017  76.3249969 102.9479980  81.9830017
  74.8929977 103.9440002  81.5230026  75.9690018 103.2870026  80.2429962
  75.4889984 100.6299973  80.7460022  76.2149963 100.0299988  81.5419998
  75.4049988 100.2770004  79.4589996  74.7880020 100.7649994  78.8460007
  76.1849976  99.2310028  78.8430023  76.8369980  98.7610016  79.5650024
  75.3050003  98.1620026  78.1389999  75.9349976  97.3280029  77.7630005
  74.7760010  98.6039963  77.2679977  74.2559967  97.5940018  79.0630035
  74.5309982  96.4459991  79.8249969  75.5149994  96.0019989  79.7839966
  73.5309982  95.8519974  80.6070023  73.7500000  94.9619980  81.1790009
  72.2429962  96.3990021  80.6350021  71.2399979  95.7740021  81.4150009
  70.4140015  96.2480011  81.3030014  72.9580002  98.1389999  79.1039963
  72.7289963  99.0139999  78.5149994  71.9570007  97.5500031  79.8880005
  70.9670029  97.9820023  79.9020004  77.0360031  99.9160004  77.7880020
  76.5390015 100.7310028  77.0090027  78.3460007  99.6309967  77.7480011
  78.7659988  99.0439987  78.4349976  79.2470016 100.2440033  76.7979965
  78.6839981 100.5449982  75.9280014  79.9079971 101.5230026  77.3880005
  80.4039993 101.2539978  78.3460007  79.1029968 102.2480011  77.6320038
  80.9059982 102.1969986  76.4990005  80.6399994 102.8130035  75.3050003
  79.6449966 102.9690018  74.9160004  81.8180008 103.1610031  74.6890030
  81.9229965 103.6829987  73.8710022  82.8629990 102.8300018  75.5009995
  82.3310013 102.2289963  76.6689987  83.1900024 101.8130035  77.6880035
  82.8130035 101.3700027  78.5979996  84.5619965 101.9710007  77.4970016
  85.2490005 101.6399994  78.2610016  84.2259979 102.9779968  75.3130035
  84.6340027 103.4059982  74.4100037  85.0680008 102.5220032  76.3239975
  86.1380005 102.5810013  76.1890030  80.2620010  99.2200012  76.2919998
  80.8880005  98.4789963  77.0490036  80.4189987  99.1399994  74.9629974
  79.9420013  99.8000031  74.3870010  81.2389984  98.1729965  74.2740021
  81.6920013  97.4879990  74.9749985  80.2919998  97.3349991  73.3619995
  79.7249985  98.0309982  72.7060013  79.5640030  96.8190002  74.0230026
  80.9660034  96.2969971  72.4629974  82.1750031  96.2470016  72.2330017
  80.1269989  95.3809967  71.9169998  79.1600037  95.3619995  72.1689987
  80.5100021  94.6809998  71.3150024  82.3290024  98.9290009  73.4960022
  82.0339966  99.4430008  72.4110031  83.5670013  99.0380020  73.9919968
  83.8270035  98.9130020  75.4209976  83.4499969  97.9639969  75.8560028
  83.3300018  99.7689972  75.9250031  84.5899963  99.8870010  73.4039993
  84.2269974 100.8899994  73.5749969  85.8460007  99.6190033  74.2539978
  86.4150009 100.5579987  74.4189987  86.5090027  98.8750000  73.7620010
  85.3450012  99.0189972  75.5759964  85.7789993  98.0049973  75.7099991
  85.6230011  99.6409988  76.4540024  84.8949966  99.7539978  71.9069977
  85.0220032  98.6179962  71.4349976  85.1039963 100.8320007  71.1439972
  84.4570007 102.1309967  71.3529968  85.1370010 102.7760010  71.9489975
  83.4749985 102.0360031  71.8649979  85.7249985 100.7419968  69.8259964
  85.2409973  99.9530029  69.2699966  85.4950027 102.1309967  69.1930008
  85.3180008 102.0550003  68.0989990  86.3580017 102.8069992  69.3700027
  84.2779999 102.6890030  69.9390030  84.2360001 103.7990036  69.9179993
  83.3470001 102.2779999  69.4919968  87.2139969 100.4130020  69.9260025
  87.7419968  99.7129974  69.0589981  87.9150009 100.9390030  70.9479980
  87.4749985 101.5199966  71.6289978  89.3239975 100.6930008  71.2340012
  89.9020004 100.9840012  70.3690033  89.8020020 101.5100021  72.4290009
  90.7559967 101.1269989  72.8509979  88.7929993 101.5619965  73.4380035
  89.1569977 102.0540009  74.1770020  90.0449982 102.9440002  71.9469986
  89.1110001 103.3919983  71.5449982  90.8119965 102.9420013  71.1429977
  90.4140015 103.5839996  72.7760010  89.6890030  99.2480011  71.5329971
  90.6549988  98.7050018  70.9899979  88.9049988  98.5830002  72.4000015
  88.1480026  99.0699997  72.8290024  89.2279968  97.2740021  72.9309998
  90.2360001  97.0049973  72.6529999  89.1419983  97.2539978  74.4820023
  89.4700012  96.2580032  74.8479996  88.0849991  97.4039993  74.7880020
  89.9739990  98.3300018  75.2180023  89.6200027  99.3320007  74.8929977
  89.7419968  98.2409973  76.7369995  90.0820007  97.2559967  77.1230011
  88.6630020  98.3629990  76.9739990  90.3099976  99.0390015  77.2590027
  91.4749985  98.2379990  74.9029999  91.6600037  98.3789978  73.8170013
  91.8769989  97.2490005  75.2119980  92.0279999  99.0289993  75.4540024
  88.2919998  96.2160034  72.3529968  87.0970001  96.1669998  72.6500015
  88.8320007  95.3270035  71.4879990  89.8040009  95.3750000  71.2679977
  88.0540009  94.3440018  70.7450027  87.2890015  94.8889999  70.2129974
  88.9260025  93.5810013  69.7080002  88.3249969  92.8000031  69.1959991
  89.7760010  93.0910034  70.2289963  89.4599991  94.5220032  68.6289978
  88.9909973  95.6439972  68.4199982  90.5090027  94.0589981  67.9069977
  90.8960037  94.6480026  67.1979980  90.8740005  93.1449966  68.0820007
  87.3229980  93.3270035  71.6250000  87.9319992  92.5329971  72.3430023
  85.9710007  93.3440018  71.5770035  85.5080032  94.0230026  71.0120010
  85.1100006  92.4029999  72.2910004  85.5329971  91.4130020  72.2060013
  84.1269989  92.4690018  71.8499985  84.9410019  92.6920013  73.7620010
  84.3990021  91.8769989  74.5049973  85.3730011  93.8690033  74.2340012
  85.8069992  94.5279999  73.6250000  85.2249985  94.2580032  75.6259995
  85.2730026  93.3740005  76.2429962  86.3649979  95.1620026  76.0849991
  86.4619980  96.0029984  75.3649979  86.1399994  95.7310028  77.5019989
  85.9720001  94.9089966  78.2300034  85.2699966  96.4209976  77.5319977
  87.0360031  96.3020020  77.8249969  87.6679993  94.3410034  76.0609970
  87.8980026  93.9680023  75.0400009  87.5839996  93.4729996  76.7490005
  88.5179977  94.9700012  76.4020004  83.8529968  94.8799973  75.8659973
  83.3330002  95.6449966  75.0559998  83.2129974  94.5220032  76.9899979
  83.6490021  93.8730011  77.6080017  81.9390030  95.0429993  77.4240036
  81.6600037  95.8960037  76.8229980  80.8339996  93.9609985  77.3330002
  81.2070007  93.0380020  77.8249969  80.6790009  93.7220001  76.2590027
  79.4660034  94.3170013  77.9599991  79.6029968  94.4759979  79.0510025
  78.8580017  95.5950012  77.3639984  78.7850037  95.5110016  76.2590027
  79.4800034  96.4820023  77.6090012  77.8399963  95.7669983  77.7750015
  78.4909973  93.1439972  77.7870026  78.9020004  92.2210007  78.2490005
  78.3140030  92.9459991  76.7080002  77.5159988  93.3779984  78.2649994
  82.0780029  95.5289993  78.8519974  82.5230026  94.8030014  79.7409973
  81.6999969  96.7890015  79.1029968  81.3659973  97.3710022  78.3659973
  81.6910019  97.3850021  80.4140015  82.0039978  96.6660004  81.1559982
  82.6090012  98.6299973  80.4970016  82.6259995  98.9899979  81.5479965
  82.1979980  99.4430008  79.8610001  84.0500031  98.3470001  80.0299988
  84.0469971  98.1880035  78.9300003  84.3820038  97.3939972  80.4950027
  85.2350006  99.6559982  80.4520035  86.6500015  98.8310013  79.6699982
  86.4800034  98.6959991  78.5810013  86.8259964  97.8300018  80.1169968
  87.5770035  99.4300003  79.7959976  80.2610016  97.7870026  80.7310028
  79.5869980  98.4670029  79.9580002  79.7529984  97.3460007  81.8860016
  80.2860031  96.7389984  82.4710007  78.4130020  97.6159973  82.3430023
  77.8880005  98.2369995  81.6330032  77.6080017  96.3130035  82.6159973
  76.5240021  96.5540009  82.6210022  77.8639984  95.9290009  83.6269989
  77.8789978  95.1480026  81.6429977  78.9700012  94.9359970  81.6309967
  77.5790024  95.4199982  80.6090012  77.1719971  93.8590012  82.1090012
  76.0830002  93.9349976  81.9039993  77.2959976  93.8089981  83.2119980
  77.7480011  92.5719986  81.4909973  78.8580017  92.6149979  81.4940033
  77.3939972  92.4430008  80.4459991  77.3450012  91.3840027  82.2870026
  76.3109970  91.2819977  82.3280029  77.7089996  91.5000000  83.2539978
  77.7570038  90.5130005  81.8939972  78.5690002  98.3710022  83.6569977
  79.3180008  97.9570007  84.5459976  77.8679962  99.5039978  83.8099976
  77.2740021  99.8270035  83.0759964  77.8870010 100.2779999  85.0329971
  78.3270035  99.6890030  85.8249969  78.7030029 101.5849991  84.8799973
  78.2450027 102.2060013  84.0810013  79.7249985 101.3089981  84.5439987
  78.8349991 102.4420013  86.1600037  77.8180008 102.7519989  86.4850006
  79.4810028 101.6719971  87.3229980  80.4970016 101.3290024  87.0319977
  78.8720016 100.7880020  87.6080017  79.5739975 102.3300018  88.2129974
  79.6350021 103.7200012  85.8659973  79.1309967 104.3209991  85.0800018
  80.6589966 103.4660034  85.5169983  79.7220001 104.3430023  86.7819977
  76.4599991 100.5719986  85.4560013  75.6770020 101.1819992  84.7239990
  76.0820007 100.0979996  86.6569977  76.7369995  99.5950012  87.2160034
  74.7310028 100.2060013  87.1729965  74.1039963 100.7310028  86.4670029
  74.0770035  98.8420029  87.5049973  73.0260010  99.0009995  87.8280029
  74.6159973  98.3369980  88.3349991  74.0739975  97.9800034  86.3669968
  74.9680023  97.6559982  86.2320023  74.7200012 100.9690018  88.4729996
  75.4690018 100.6389999  89.3889999  73.8420029 101.9729996  88.6029968
  73.2639999 102.2379990  87.8349991  73.6039963 102.6910019  89.8430023
  74.2649994 102.3150024  90.6100006  73.8420029 104.1959991  89.7409973
  74.8840027 104.3320007  89.3789978  72.9010010 104.8769989  88.7310028
  71.8470001 104.8560028  89.0820007  72.9639969 104.3779984  87.7409973
  73.1989975 105.9400024  88.6070023  73.7389984 104.8590012  91.1269989
  74.4380035 104.3750000  91.8430023  72.7050018 104.7990036  91.5289993
  74.0090027 105.9339981  91.0449982  72.1849976 102.4089966  90.2969971
  71.2369995 102.3939972  89.5059967  71.9899979 102.1200027  91.5979996
  72.7509995 102.0899963  92.2419968  70.6539993 101.8679962  92.0979996
  70.1940002 101.1240005  91.4649963  70.1179962 102.8050003  92.1159973
  70.6380005 101.3180008  93.4919968  71.6070023 101.4290009  94.2450027
  69.5000000 100.7089996  93.8639984  68.7740021 100.5920029  93.1910019
  69.2620010 100.1809998  95.1890030  70.1330032 100.3509979  95.8050003
  68.0640030 100.8769989  95.8870010  67.1679993 100.8040009  95.2340012
  68.3239975 101.9530029  95.9789963  67.7289963 100.2990036  97.2809982
  68.6569977 100.2529984  97.8899994  67.3249969  99.2679977  97.1920013
  66.7429962 101.1829987  98.0459976  67.0709991 102.2809982  98.5059967
  65.4899979 100.6999969  98.2040024  65.2149963  99.8649979  97.7289963
  64.8290024 101.2539978  98.7109985  69.0540009  98.6760025  95.1500015
  68.2330017  98.1490021  94.3949966  69.8270035  97.9550018  95.9749985
  70.4400024  98.4339981  96.5979996  69.8610001  96.5100021  96.0759964
  69.7170029  96.0920029  95.0910034  71.2249985  96.0350037  96.6419983
  71.2959976  94.9280014  96.6989975  71.3509979  96.4400024  97.6689987
  72.3690033  96.5230026  95.7969971  72.6780014  95.9150009  94.5670013
  72.0640030  95.1050034  94.2030029  73.7750015  96.3519974  93.8079987
  73.9940033  95.8759995  92.8639984  74.5739975  97.4029999  94.2789993
  75.6930008  97.8619995  93.5569992  75.7910004  97.3109970  92.7779999
  73.1930008  97.5599976  96.2620010  72.9960022  98.0090027  97.2239990
  74.2770004  98.0009995  95.5029984  74.9010010  98.7990036  95.8769989
  68.7480011  95.9479980  96.9580002  67.9830017  96.6699982  97.5999985
  68.6389999  94.6029968  97.0179977  69.2539978  94.0220032  96.4899979
  67.6350021  93.8949966  97.7929993  66.6669998  94.1989975  97.4240036
  67.7850037  92.3659973  97.6220016  67.1019974  91.8330002  98.3180008
  68.8280029  92.0830002  97.8809967  67.4779968  91.8479996  96.2020035
  68.0260010  92.4680023  95.4599991  67.9779968  90.4059982  96.0530014
  67.5260010  89.7519989  96.8290024  69.0839996  90.3649979  96.1579971
  67.7009964  90.0080032  95.0530014  65.9789963  91.9349976  95.8769989
  65.6259995  92.9879990  95.9199982  65.3880005  91.3379974  96.6039963
  65.7799988  91.5370026  94.8590012  67.6370010  94.2220001  99.2829971
  66.5790024  94.3730011  99.8949966  68.8190002  94.3949966  99.9069977
  69.6780014  94.2979965  99.4089966  68.9319992  94.6750031 101.3280029
  68.1200027  94.1930008 101.8519974  70.2480011  94.0899963 101.8750000
  71.1279984  94.5559998 101.3820038  70.2850037  92.9950027 101.6900024
  70.3259964  94.2519989 102.9710007  68.8499985  96.1800003 101.6309967
  69.1539993  96.6360016 102.7369995  68.4029999  96.9729996 100.6299973
  68.2089996  96.5400009  99.7529984  68.0699997  98.3850021 100.7030029
  67.5950012  98.5960007  99.7570038  67.0120010  98.7500000 101.7839966
  66.8870010  99.8529968 101.8389969  67.3700027  98.4100037 102.7789993
  65.6230011  98.1569977 101.5039978  65.7360001  97.0699997 101.3010025
  65.1979980  98.6200027 100.5879974  64.6610031  98.3410034 102.6930008
  64.5029984  99.4280014 102.8560028  65.1559982  97.9280014 103.5979996
  63.3120003  97.6330032 102.4909973  63.4729996  96.5439987 102.3420029
  62.7970009  98.0429993 101.5960007  62.4189987  97.8180008 103.6669998
  62.2000008  98.8249969 103.8099976  62.8670006  97.4570007 104.5329971
  61.5250015  97.3069992 103.5240021  69.2659988  99.3300018 100.7350006
  69.1220016 100.5520020 100.8320007  70.4889984  98.7969971 100.5910034
  70.6399994  97.8140030 100.5289993  71.6829987  99.5540009 100.3379974
  71.6539993 100.4229965 100.9789963  72.9560013  98.7699966 100.7320023
  72.9010010  98.5770035 101.8249969  73.8570023  99.3919983 100.5380020
  73.1139984  97.4130020 100.0559998  72.1429977  96.6110001 100.0220032
  74.2710037  97.1029968  99.6549988  71.7320023 100.0920029  98.9059982
  71.1409988  99.5479965  97.9710007  72.4280014 101.2229996  98.7210007
  72.9440002 101.6179962  99.4779968  72.4729996 101.9550018  97.4749985
  71.8690033 101.4680023  96.7239990  71.9980011 103.4179993  97.6589966
  72.0370026 103.9530029  96.6869965  72.6979980 103.9319992  98.3529968
  70.5780029 103.5319977  98.2399979  70.4619980 102.8320007  99.0950012
  69.8369980 103.2300034  97.4690018  70.2689972 104.9489975  98.7570038
  70.2669983 105.6559982  97.9000015  71.0970001 105.2460022  99.4359970
  68.9309998 105.0240021  99.5110016  68.8759995 104.2139969 100.2689972
  68.0830002 104.9089966  98.8040009  68.7919998 106.3270035 100.2210007
  68.8300018 107.1210022  99.5500031  69.5569992 106.4479980 100.9150009
  67.8889999 106.3590012 100.7360001  73.9120026 101.9530029  97.0110016
  74.8300018 102.2040024  97.7939987  74.1679993 101.6269989  95.7330017
  73.4309998 101.4629974  95.0830002  75.5400009 101.5100021  95.2770004
  75.9140015 100.5490036  95.5970001  76.1179962 102.3190002  95.6979980
  75.7249985 101.5640030  93.7910004  74.8030014 101.8389969  93.0210037
  76.9660034 101.2600021  93.3789978  77.6589966 101.0419998  94.0619965
  77.3710022 101.1029968  92.0070038  76.5260010 101.2839966  91.3580017
  78.5179977 102.0569992  91.6200027  79.3899994 101.9240036  92.2949982
  78.1800003 103.1129990  91.6900024  78.8460007 101.8789978  90.5729980
  77.8610001  99.6819992  91.7819977  78.7750015  99.1989975  92.4570007
  77.2779999  98.9889984  90.7900009  76.5360031  99.4140015  90.2770004
  77.7829971  97.7070007  90.3229980  78.5210037  97.3300018  91.0159988
  76.7659988  96.5910034  90.1240005  75.9840012  96.8929977  89.3949966
  76.1480026  96.2740021  91.3639984  75.6259995  95.4820023  91.2180023
  77.4609985  95.3000031  89.6579971  78.2679977  95.0220032  90.3690033
  77.9039993  95.4150009  88.6460037  76.7360001  94.4599991  89.6060028
  78.4759979  97.9390030  89.0120010  77.8629990  98.3489990  88.0250015
  79.7870026  97.6689987  88.9729996  80.2480011  97.3280029  89.7890015
  80.5790024  97.7030029  87.7659988  79.9869995  98.1139984  86.9619980
  81.8320007  98.5729980  87.8720016  81.4850006  99.6060028  88.0889969
  82.7369995  98.1350021  89.0469971  83.1549988  97.1210022  88.8740005
  82.1770020  98.1309967  90.0070038  83.5889969  98.8399963  89.1569977
  82.5869980  98.6110001  86.5210037  81.8420029  98.7040024  85.7030029
  83.1269989  97.6500015  86.3789978  83.5749969  99.7760010  86.4010010
  84.3679962  99.7060013  87.1760025  83.0490036 100.7470016  86.5230026
  84.0630035  99.7679977  85.4039993  80.9039993  96.2720032  87.3789978
  81.3479996  95.4639969  88.1949997  80.6240005  95.9100037  86.1190033
  80.2259979  96.5770035  85.4919968  80.8509979  94.5910034  85.5770035
  81.5169983  94.0360031  86.2200012  79.4869995  93.8379974  85.4929962
  78.7639999  94.4869995  84.9530029  79.1070023  93.6949997  86.5270004
  79.4919968  92.4820023  84.8010025  80.5479965  91.9990005  84.3259964
  78.3889999  91.8720016  84.7119980  81.5839996  94.7770004  84.2480011
  81.0989990  95.4489975  83.3369980  82.8040009  94.2300034  84.1269989
  83.1510010  93.6380005  84.8509979  83.6460037  94.3860016  82.9550018
  83.0849991  94.8529968  82.1589966  84.8909988  95.2379990  83.2040024
  85.4540024  94.8330002  84.0719986  85.8160019  95.2340012  81.9670029
  85.2389984  95.4850006  81.0510025  86.2949982  94.2419968  81.8219986
  86.6240005  95.9860001  82.0910034  84.4469986  96.6770020  83.5279999
  83.8499985  96.7089996  84.4639969  83.8239975  97.0820007  82.7020035
  85.3320007  97.3369980  83.6579971  84.0400009  93.0120010  82.4540024
  84.5869980  92.1910019  83.1920013  83.7699966  92.7259979  81.1689987
  83.3399963  93.4110031  80.5859985  84.0680008  91.4520035  80.5650024
  84.8140030  90.9390030  81.1539993  82.7959976  90.5899963  80.4459991
  82.0429993  91.0820007  79.7949982  82.3450012  90.4560013  81.4530029
  83.0279999  89.5839996  80.0360031  84.6809998  91.6179962  79.1930008
  84.5139999  92.6340027  78.5230026  85.4209976  90.5950012  78.7450027
  85.5879974  89.8109970  79.3379974  85.9940033  90.5439987  77.4229965
  85.6090012  91.3529968  76.8199997  87.5329971  90.6539993  77.4530029
  87.9550018  89.8460007  78.0889969  87.7979965  91.6190033  77.9339981
  88.1640015  90.5839996  76.0540009  87.6340027  91.2880020  75.3779984
  88.0469971  89.5609970  75.6360016  89.6559982  90.9359970  76.0759964
  90.1650009  90.2330017  76.7699966  89.7679977  91.9609985  76.4899979
  90.2919998  90.8580017  74.6839981  89.8079987  91.5729980  73.9850006
  90.1969986  89.8310013  74.2720032  91.7249985  91.1910019  74.7799988
  92.1579971  90.6210022  75.5339966  91.8629990  92.1999969  74.9940033
  92.2119980  90.9660034  73.8889999  85.6009979  89.2620010  76.7259979
  85.8209991  88.1660004  77.2369995  85.0090027  89.3899994  75.5270004
  84.8040009  90.3000031  75.1750031  84.7050018  88.3099976  74.6200027
  84.5999985  87.3949966  75.1839981  83.3649979  88.5810013  73.8909988
  83.4219971  89.5979996  73.4479980  82.5589981  88.6090012  74.6549988
  82.9879990  87.5660019  72.7870026  82.9800034  86.5490036  73.2350006
  83.7559967  87.5619965  71.9840012  81.6139984  87.8239975  72.1449966
  80.8310013  87.8059998  72.9329987  81.3850021  87.0630035  71.3690033
  81.6869965  89.1760025  71.5000000  82.5770035  89.5240021  71.2060013
  80.6559982  89.9919968  71.3430023  79.4059982  89.6679993  71.5780029
  78.7379990  90.3970032  71.4270020  79.1579971  88.7310028  71.8229980
  80.8280029  91.2310028  70.9309998  81.7409973  91.6200027  70.8109970
  79.9869995  91.7699966  70.8840027  85.8320007  88.0930023  73.6169968
  86.2860031  89.0100021  72.9309998  86.3170013  86.8479996  73.5299988
  85.9339981  86.1360016  74.1129990  87.3809967  86.4140015  72.6480026
  88.0390015  87.2490005  72.4589996  88.1910019  85.2779999  73.3229980
  89.0029984  84.8970032  72.6660004  87.5179977  84.4359970  73.5889969
  88.8259964  85.8280029  74.5739975  89.9729996  86.6330032  74.4779968
  90.4089966  86.8219986  73.5080032  90.5309982  87.2210007  75.6200027
  91.4100037  87.8420029  75.5339966  89.9440002  87.0039978  76.8720016
  90.3499985  87.4789963  77.7529984  88.2760010  85.5810013  75.8450012
  87.4020004  84.9530029  75.9400024  88.8219986  86.1770020  76.9869995
  88.3720016  86.0100021  77.9540024  86.8440018  85.9749985  71.2880020
  85.6340027  85.8600006  71.0800018  87.7350006  85.7210007  70.3050003
  88.7109985  85.8249969  70.4840012  87.3880005  85.4120026  68.9229965
  86.8010025  86.2399979  68.5540009  88.6520004  85.2610016  68.0309982
  88.3669968  84.9120026  67.0149994  89.3389969  84.5090027  68.4759979
  89.4120026  86.5699997  67.8479996  88.8509979  87.6750031  68.0739975
  90.5719986  86.5009995  67.3519974  86.4899979  84.1809998  68.7460022
  85.6500015  84.1409988  67.8450012  86.6370010  83.1529999  69.6119995
  87.3410034  83.1890030  70.3170013  85.7779999  81.9700012  69.5970001
  85.6729965  81.6360016  68.5749969  86.3799973  80.8099976  70.4329987
  87.3980026  80.5940018  70.0419998  85.7720032  79.8889999  70.3069992
  86.4769974  81.1230011  71.8290024  87.2900009  81.6200027  71.9430008
  84.3740005  82.2080002  70.1490021  83.4609985  81.4130020  69.9319992
  84.1760025  83.3109970  70.9049988  84.9160004  83.9729996  70.9950027
  82.9140015  83.6620026  71.5390015  82.1060028  83.0780029  71.1230011
  82.7740021  84.7229996  71.3939972  82.9039993  83.4229965  73.0220032
  81.9639969  83.8219986  73.7080002  83.9469986  82.7829971  73.5899963
  84.6669998  82.3899994  73.0230026  84.1289978  82.7089996  75.0370026
  83.2210007  82.3059998  75.4609985  85.2779999  81.7919998  75.4560013
  86.2340012  82.1719971  75.0360031  85.4000015  81.7119980  76.9919968
  84.4250031  81.4440002  77.4499969  85.7539978  82.6699982  77.4290009
  86.1350021  80.9260025  77.2679977  85.0339966  80.3799973  74.8990021
  85.0370026  80.3779984  73.7880020  84.0579987  79.9879990  75.2549973
  85.8359985  79.6920013  75.2409973  84.3229980  84.0979996  75.6330032
  85.0449982  84.9240036  75.0780029  83.6679993  84.4029999  76.7669983
  83.0739975  83.7269974  77.1969986  83.8369980  85.6669998  77.4430008
  84.6480026  86.2109985  76.9820023  82.5609970  86.5270004  77.3700027
  81.7020035  85.9980011  77.8339996  82.3190002  86.7360001  76.3059998
  82.7070007  87.4990005  77.8870010  84.2460022  85.4619980  78.8860016
  83.7289963  84.5889969  79.5770035  85.1979980  86.2740021  79.3730011
  85.6060028  86.9639969  78.7799988  85.6460037  86.2529984  80.7549973
  85.0699997  85.5400009  81.3270035  87.1240005  85.9039993  80.9029999
  87.7440033  86.6340027  80.3410034  87.5289993  85.9300003  82.3909988
  86.8499985  85.2860031  82.9889984  87.5049973  86.9599991  82.8059998
  88.5640030  85.5419998  82.5049973  87.3720016  84.5000000  80.3239975
  87.1350021  84.4560013  79.2389984  86.7409973  83.7539978  80.8529968
  88.4359970  84.2129974  80.4589996  85.3850021  87.6259995  81.3410034
  85.7490005  88.6419983  80.7450027  84.7139969  87.6969986  82.5090027
  84.4670029  86.8550034  82.9830017  84.3730011  88.9489975  83.1640015
  83.3140030  89.1100006  83.0260010  84.9840012  89.7419968  82.7580032
  84.6409988  88.9739990  84.6409988  84.8339996  87.9479980  85.2919998
  84.6380005  90.1930008  85.1999969  84.5019989  90.9950027  84.6240005
  84.8899994  90.4850006  86.5960007  84.6340027  89.6159973  87.1849976
  86.3379974  90.8929977  86.9150009  86.4400024  90.9789963  88.0179977
  87.3020020  89.7900009  86.4410019  87.3730011  89.7789993  85.3320007
  86.9359970  88.7959976  86.7750015  88.3199997  89.9580002  86.8529968
  86.7289963  92.2450027  86.2799988  86.1399994  93.0849991  86.7060013
  86.5699997  92.2200012  85.1809998  87.8040009  92.4540024  86.4690018
  83.9459991  91.6060028  87.0070038  83.6080017  92.4889984  86.2139969
  83.4649963  91.5950012  88.2620010  83.7040024  90.8659973  88.8980026
  82.5179977  92.5879974  88.7220001  82.6989975  93.5029984  88.1770020
  81.0360031  92.1579971  88.4820023  80.9270020  91.9869995  87.3899994
  80.3600006  93.0029984  88.7360001  80.5619965  90.9309998  89.2050018
  80.5640030  89.6549988  88.7060013  80.9150009  89.4000015  87.7170029
  80.0599976  88.7860031  89.6470032  79.8629990  87.8369980  89.5289993
  79.7229996  89.4820023  90.7720032  80.0120010  90.8479996  90.5339966
  79.7200012  91.7919998  91.5220032  79.8939972  92.8450012  91.3560028
  79.1839981  91.3509979  92.7350006  78.9580002  92.0690002  93.5090027
  79.1940002  89.0449982  91.9769974  78.9950027  88.0000000  92.1579971
  78.9319992  90.0009995  92.9609985  78.5159988  89.6859970  93.9069977
  82.7350006  92.9390030  90.1849976  83.2770004  92.1640015  90.9739990
  82.3010025  94.1510010  90.5690002  81.9160004  94.7689972  89.8870010
  82.2839966  94.6100006  91.9359970  82.2369995  93.7630005  92.6029968
  83.5270004  95.4609985  92.2649994  83.5899963  96.3420029  91.5910034
  84.4469986  94.8529968  92.1299973  83.4960022  95.8190002  93.3160019
  81.0260010  95.4339981  92.1610031  80.6760025  96.3000031  91.3580017
  80.3119965  95.1640015  93.2669983  80.6200027  94.4619980  93.9049988
  79.1230011  95.8779984  93.6650009  78.8539963  96.6220016  92.9290009
  77.9420013  94.9089966  93.8550034  78.1800003  94.1360016  94.6169968
  77.7160034  94.3980026  92.8949966  77.0299988  95.4570007  94.1760025
  79.4240036  96.5999985  94.9660034  79.5650024  95.9940033  96.0309982
  79.5520020  97.9349976  94.8909988  79.3610001  98.4010010  94.0309982
  80.0869980  98.7570038  95.9599991  80.3550034  98.1380005  96.8030014
  81.3420029  99.5309982  95.5390015  81.0859985 100.2020035  94.6910019
  81.8410034 100.3899994  96.7239990  82.0839996  99.7440033  97.5950012
  81.0839996 101.1409988  97.0370026  82.7570038 100.9509964  96.4410019
  82.4449997  98.5559998  95.0459976  82.0370026  97.8889999  94.2570038
  82.7500000  97.9150009  95.9010010  83.6839981  99.2470016  94.4629974
  84.2119980  99.8430023  95.2379990  83.3980026  99.9229965  93.6299973
  84.3970032  98.4899979  94.0709991  78.9950027  99.7060013  96.4169998
  78.5159988 100.5520020  95.6589966  78.5500031  99.5690002  97.6809998
  78.9479980  98.8970032  98.3000031  77.3990021 100.2860031  98.2020035
  77.0210037 100.9589996  97.4459991  76.2360001  99.3300018  98.5889969
  75.9970016  98.7170029  97.6940002  75.3190002  99.8990021  98.8519974
  76.5630035  98.4339981  99.6480026  75.7819977  97.8809967  99.7249985
  77.7570038 101.1689987  99.3840027  78.9150009 101.2880020  99.7910004
  76.7440033 101.8450012  99.9499969  75.8229980 101.7480011  99.5800018
  76.8619995 102.8310013 101.0039978  77.8259964 103.3109970 100.9140015
  75.7620010 103.9229965 100.8310013  75.8789978 104.3860016  99.8280029
  75.9179993 104.7149963 101.5940018  74.3320007 103.3909988 100.9400024
  74.0350037 102.1959991 100.8720016  73.3740005 104.3280029 101.1419983
  72.4349976 104.0169983 101.2900009  73.6200027 105.2959976 101.1920013
  76.8119965 102.2129974 102.4120026  76.5800018 102.8960037 103.4120026
  77.0500031 100.8939972 102.5260010  77.1989975 100.3470001 101.7050018
  77.1640015 100.1940002 103.7919998  76.5019989 100.6539993 104.5110016
  76.7919998  98.7170029 103.6650009  77.5240021  98.2030029 103.0059967
  76.7819977  98.0429993 105.0459976  76.0699997  98.5550003 105.7279968
  77.7939987  98.0609970 105.5059967  76.4759979  96.9789963 104.9570007
  75.4020004  98.5849991 103.0270004  75.4049988  98.9810028 101.9889984
  74.6399994  99.1350021 103.6190033  75.1019974  97.5169983 102.9739990
  78.5989990 100.3050003 104.3089981  79.5599976 100.0210037 103.5869980
  78.8000031 100.7419968 105.5770035  78.0299988 101.0090027 106.1510010
  80.1240005 100.7519989 106.2050018  80.7760010 101.2829971 105.5270004
  80.1999969 101.4980011 107.5790024  79.6630020 102.4670029 107.4899979
  81.2649994 101.7320023 107.7929993  79.6780014 100.7580032 108.6880035
  78.7239990 100.8560028 108.6729965  80.6999969  99.3460007 106.3649979
  79.9690018  98.3649979 106.4779968  82.0410004  99.1839981 106.3820038
  82.6600037  99.9560013 106.2630005  82.6510010  97.8740005 106.5800018
  82.2649994  97.2289963 105.8050003  84.1869965  97.9160004 106.3960037
  84.6159973  96.9250031 106.6579971  84.6269989  98.6669998 107.0859985
  84.5979996  98.2289963 104.9449997  84.2320023  99.2429962 104.6729965
  84.1050034  97.5049973 104.2630005  86.1230011  98.1709976 104.7259979
  86.4700012  97.1299973 104.9029999  86.6050034  98.8229980 105.4850006
  86.5380020  98.6340027 103.3180008  86.2200012  99.6880035 103.1689987
  86.0540009  98.0019989 102.5419998  88.0059967  98.5599976 103.1279984
  88.5179977  98.7799988 104.0059967  88.3160019  99.2220001 102.3880005
  88.2799988  97.6060028 102.8170013  82.2679977  97.1949997 107.8990021
  82.0289993  95.9879990 107.9489975  82.1529999  97.9769974 108.9950027
  82.3789978  98.9459991 108.9420013  81.6299973  97.5080032 110.2679977
  82.2289963  96.6669998 110.5849991  81.7020035  98.6360016 111.3330002
  81.1969986  98.3160019 112.2699966  81.1819992  99.5390015 110.9479980
  83.1299973  99.0139999 111.7009964  84.0820007  98.2239990 111.4690018
  83.3010025 100.0930023 112.3339996  80.1819992  96.9940033 110.1920013
  79.8619995  95.9339981 110.7340012  79.2750015  97.7220001 109.5059967
  79.5309982  98.6019974 109.1139984  77.9199982  97.2730026 109.2249985
  77.4570007  96.9929962 110.1589966  77.1070023  98.4189987 108.5690002
  76.0859985  98.0589981 108.3160019  77.6100006  98.7490005 107.6350021
  76.9540024  99.6129990 109.4940033  76.6699982  99.4449997 110.7099991
  77.0299988 100.7639999 108.9759979  77.8399963  96.0360031 108.3140030
  77.0699997  95.1050034 108.5589981  78.6320038  96.0189972 107.2200012
  79.1959991  96.8180008 107.0260010  78.6880035  94.9599991 106.2300034
  77.6770020  94.7939987 105.8860016  79.5770035  95.4240036 105.0390015
  80.6569977  95.3799973 105.2959976  79.3379974  96.4820023 104.7979965
  79.3320007  94.6070023 103.7939987  80.0189972  93.4039993 103.5479965
  80.7220001  93.0289993 104.2779999  79.7910004  92.6800003 102.3690033
  80.3099976  91.7490005 102.1959991  78.8759995  93.1579971 101.4219971
  78.6050034  92.4199982 100.2529984  77.7570038  92.7109985  99.9100037
  78.4380035  95.0839996 102.8209991  77.9179993  96.0159988 102.9850006
  78.2160034  94.3700027 101.6389999  77.5400009  94.7649994 100.8949966
  79.2139969  93.6289978 106.7779999  78.6660004  92.5569992 106.5000000
  80.3020020  93.6809998 107.5749969  80.7080002  94.5650024 107.7900009
  81.0660019  92.5130005 107.9789963  80.4089966  91.6579971 108.0490036
  81.5429993  92.7529984 108.9169998  82.1610031  92.1809998 106.9919968
  82.6139984  93.0189972 106.2080002  82.6490021  90.9300003 107.0309982
  82.2890015  90.2789993 107.6959991  83.7089996  90.4270020 106.1770020
  84.5839996  91.0260010 106.3830032  84.0350037  88.9619980 106.5690002
  83.0960007  88.3789978 106.4580002  84.3079987  88.9530029 107.6460037
  85.1380005  88.2450027 105.7529984  86.0989990  88.7880020 105.8759995
  84.8779984  88.2419968 104.6729965  85.3499985  86.7860031 106.1719971
  86.1439972  86.0849991 105.4869995  84.7460022  86.3160019 107.1750031
  83.4339981  90.5619965 104.6729965  82.2959976  90.4769974 104.2060013
  84.4899979  90.8359985 103.8710022  85.4130020  90.8359985 104.2480011
  84.3809967  91.1039963 102.4400024  83.5130005  90.6050034 102.0339966
  85.2969971  90.7610016 101.9820023  84.2600021  92.5660019 102.1050034
  84.7620010  93.0090027 101.0719986  83.5790024  93.3610001 102.9570007
  83.1800003  92.9390030 103.7679977  83.4380035  94.8180008 102.8489990
  84.4079971  95.2350006 102.6210022  83.0569992  95.1640015 103.7979965
  82.4749985  95.3160019 101.7880020  81.7979965  96.3280029 101.9639969
  82.4199982  94.6090012 100.6529999  83.0110016  93.8099976 100.5699997
  81.5599976  94.8470001  99.5210037  80.5569992  95.0139999  99.8830032
  82.0199966  96.0550003  98.6429977  82.0019989  96.9759979  99.2639999
  81.3020020  96.2099991  97.8079987  83.4069977  95.9150009  98.0550003
  84.5339966  96.3519974  98.7720032  84.4100037  96.7399979  99.7720032
  85.8099976  96.3180008  98.1949997  86.6650009  96.6709976  98.7519989
  85.9700012  95.8539963  96.8830032  86.9489975  95.8539963  96.4270020
  83.5839996  95.4489975  96.7399979  82.7220001  95.1449966  96.1650009
  84.8570023  95.4169998  96.1549988  84.9769974  95.0719986  95.1380005
  81.5569992  93.5350037  98.7460022  82.4219971  92.6839981  98.9670029
  80.5889969  93.3199997  97.8330002  79.9100037  94.0230026  97.6389999
  80.5309982  92.1009979  97.0289993  81.0429993  91.3140030  97.5640030
  79.0940018  91.5709991  96.7639999  79.0660019  90.9100037  95.8710022
  78.4049988  92.4219971  96.5770035  78.6350021  90.7870026  97.8669968
  78.6470032  91.3580017  98.6389999  81.2710037  92.2340012  95.7160034
  81.2880020  93.2850037  95.0780029  81.9229965  91.1480026  95.2720032
  81.8909988  90.2760010  95.7539978  82.6959991  91.1539993  94.0510025
  82.1930008  91.7659988  93.3170013  84.1439972  91.6669998  94.2910004
  84.0599976  92.6729965  94.7559967  84.6399994  91.8199997  93.3089981
  85.0439987  90.7580032  95.1579971  85.7559967  90.2340012  94.4850006
  84.4420013  89.9710007  95.6610031  85.8369980  91.5210037  96.2440033
  86.3369980  92.3899994  95.7659988  86.6289978  90.8440018  96.6299973
  84.9550018  91.9820023  97.4169998  84.5009995  91.0999985  97.9189987
  84.1370010  92.6370010  97.0479965  85.7340012  92.7409973  98.4309998
  86.0839996  93.6380005  98.0380020  86.5419998  92.1880035  98.7809982
  85.1409988  92.9540024  99.2590027  82.7119980  89.7389984  93.5120010
  82.4769974  88.7770004  94.2470016  82.9550018  89.5690002  92.2030029
  83.1389999  90.3519974  91.6129990  82.9530029  88.2509995  91.5989990
  81.9280014  87.9309998  91.4879990  83.5360031  87.5869980  92.2200012
  83.5920029  88.2300034  90.2399979  84.0189972  89.2480011  89.6949997
  83.6819992  87.0199966  89.6729965  83.3089981  86.2289963  90.1520004
  84.4580002  86.7080002  88.4940033  84.5530014  87.5830002  87.8669968
  85.8590012  86.1060028  88.8460007  86.4339981  85.9359970  87.9110031
  85.7350006  85.1279984  89.3590012  86.6760025  86.9869995  89.7720032
  87.7580032  87.7330017  89.2750015  88.0120010  87.6709976  88.2269974
  88.5179977  88.5530014  90.1169968  89.3339996  89.1340027  89.7129974
  88.2330017  88.6060028  91.4860001  88.8280029  89.2300034  92.1370010
  86.4309998  87.0230026  91.1610031  85.6360016  86.4209976  91.5759964
  87.1930008  87.8320007  92.0120010  86.9820023  87.8539963  93.0709991
  83.6620026  85.6539993  87.7389984  82.9919968  84.8229980  88.3499985
  83.6699982  85.6480026  86.3939972  84.1610031  86.3399963  85.8720016
  82.8860016  84.6719971  85.6569977  82.9779968  83.7289963  86.1750031
  81.3669968  85.0319977  85.5719986  80.9639969  85.1449966  86.6009979
  80.8000031  84.2109985  85.0830002  81.1029968  86.3209991  84.8300018
  81.2119980  87.5559998  85.4889984  81.5240021  87.5749969  86.5220032
  80.9209976  88.7519989  84.8209991  81.0090027  89.6930008  85.3420029
  80.5029984  88.7220001  83.4860001  80.1800003  89.9179993  82.8219986
  80.3310013  90.6309967  83.4469986  80.6880035  86.3030014  83.4860001
  80.5899963  85.3600006  82.9690018  80.3949966  87.4990005  82.8140030
  80.0739975  87.4749985  81.7829971  83.4349976  84.4079971  84.2630005
  84.1320038  85.2229996  83.6610031  83.1169968  83.2180023  83.7289963
  82.6009979  82.5660019  84.2799988  83.4700012  82.7689972  82.3980026
  83.8710022  83.5970001  81.8320007  84.4929962  81.6279984  82.4000015
  84.0329971  80.7249985  82.8550034  84.8899994  81.2959976  80.9420013
  85.3219986  82.1890030  80.4410019  84.0130005  80.9570007  80.3489990
  85.6419983  80.4789963  80.9110031  85.7239990  81.9909973  83.2710037
  85.3929977  82.2480011  84.3000031  86.2160034  82.8919983  82.8460007
  86.7429962  80.8560028  83.4000015  87.2200012  80.6370010  82.4209976
  86.2529984  79.9300003  83.7699966  87.5410004  81.1389999  84.1200027
  82.1839981  82.3150024  81.7249985  81.3880005  81.5820007  82.3099976
  81.9300003  82.7549973  80.4810028  82.5810013  83.3750000  80.0500031
  80.7880020  82.3410034  79.6849976  80.1859970  81.6370010  80.2409973
  79.8870010  83.5339966  79.2710037  80.4540024  84.2259979  78.6119995
  79.6060028  84.1009979  80.1849976  78.6979980  83.1039963  78.5960007
  78.0589981  82.8190002  79.2539978  81.2910004  81.6460037  78.4329987
  81.9589996  82.2529984  77.5950012  80.9980011  80.3399963  78.2850037
  80.4540024  79.8860016  78.9860001  81.5419998  79.4940033  77.2320023
  82.2799988  80.0449982  76.6669998  82.2620010  78.2580032  77.7890015
  81.5230026  77.5839996  78.2720032  82.9380035  77.4899979  76.6279984
  83.7639999  78.0899963  76.1900024  82.2170029  77.2340012  75.8219986
  83.3659973  76.5339966  76.9970016  83.2850037  78.6589966  78.8860016
  82.7519989  79.1729965  79.7139969  84.0110016  79.3779984  78.4509964
  84.0479965  77.4789963  79.5009995  84.7009964  76.9889984  78.7470016
  83.3399963  76.7229996  79.9020004  84.6920013  77.8320007  80.3339996
  80.4029999  79.0380020  76.3140030  79.5520020  78.2649994  76.7590027
  80.2880020  79.4710007  75.0579987  81.0459976  80.5869980  74.5000000
  82.0599976  80.2229996  74.2289963  81.1200027  81.4339981  75.2149963
  79.3349991  78.9359970  74.0889969  78.3539963  79.2279968  74.4349976
  79.6999969  79.6419983  72.7829971  78.8199997  79.7620010  72.1159973
  80.4929962  79.0820007  72.2419968  80.2770004  80.9779968  73.2389984
  80.9300003  81.4290009  72.4619980  79.4570007  81.6849976  73.4869995
  79.2789993  77.4240036  73.9130020  80.3160019  76.7639999  73.8310013
  78.0640030  76.8590012  73.7939987  77.2389984  77.4100037  73.8949966
  77.8669968  75.4499969  73.5220032  78.6200027  74.9059982  74.0729980
  76.4710007  74.9530029  73.9840012  76.1569977  74.0250015  73.4599991
  75.7009964  75.7330017  73.8040009  76.5250015  74.6250000  75.4489975
  77.0419998  73.3830032  75.8610001  77.3949966  72.6790009  75.1210022
  77.1289978  73.0589981  77.2190018  77.5319977  72.1050034  77.5240021
  76.6790009  73.9700012  78.1809998  76.7379990  73.7170029  79.2289963
  76.0520020  75.5199966  76.4219971  75.6350021  76.4690018  76.1169968
  76.1279984  75.1959991  77.7809982  75.7590027  75.8880005  78.5240021
  78.1009979  75.0390015  72.0759964  78.2760010  73.8519974  71.8059998
  78.1350021  75.9670029  71.0899963  78.0029984  76.9390030  71.2669983
  78.5189972  75.6080017  69.7300034  77.9219971  74.7470016  69.4690018
  78.1539993  76.6800003  68.6620026  77.0859985  76.9540024  68.8000031
  78.2600021  76.2200012  67.6559982  78.9680023  77.9639969  68.6940002
  79.2340012  78.5080032  69.7939987  79.2460022  78.5159988  67.5930023
  79.9749985  75.1190033  69.6549988  80.2900009  74.1569977  68.9560013
  80.8880005  75.7300034  70.4410019  80.6350021  76.5609970  70.9309998
  82.2419968  75.2450027  70.6460037  82.7259979  75.1969986  69.6819992
  83.0459976  76.1949997  71.5690002  84.0729980  75.7969971  71.7139969
  82.5559998  76.2310028  72.5660019  83.1729965  77.6409988  71.0510025
  82.1569977  78.0469971  70.8570023  83.8160019  78.5240021  72.1269989
  84.8539963  78.1890030  72.3410034  83.2279968  78.4789963  73.0680008
  83.8550034  79.5820007  71.7900009  83.9720001  77.7129974  69.7399979
  83.4700012  77.1190033  68.9459991  85.0000000  77.3199997  69.8880005
  84.0370026  78.7659988  69.3929977  82.3300018  73.8369980  71.2460022
  83.1620026  73.0210037  70.8389969  81.4690018  73.5250015  72.2360001
  80.7850037  74.1930008  72.5199966  81.5609970  72.3099976  73.0270004
  82.5820007  71.9580002  73.0240021  81.1689987  72.6139984  74.4990005
  81.1920013  71.6689987  75.0820007  80.1289978  73.0039978  74.5279999
  82.1159973  73.6090012  75.2030029  82.0569992  74.5989990  74.7020035
  83.1549988  73.2399979  75.0680008  81.7890015  73.8109970  76.9840012
  80.3130035  74.8499985  76.8150024  79.5299988  74.3420029  76.2109985
  80.5540009  75.8089981  76.3099976  79.8740005  75.0879974  77.8079987
  80.6949997  71.1510010  72.5169983  80.7529984  70.0390015  73.0479965
  79.8970032  71.3639984  71.4509964  79.8880005  72.2570038  71.0070038
  78.9680023  70.3669968  70.9250031  79.2689972  69.3919983  71.2789993
  77.4850006  70.5569992  71.3030014  76.9059982  69.6689987  70.9720001
  76.8899994  71.7089996  70.7170029  77.4010010  72.4489975  71.0540009
  77.3130035  70.6660004  72.8219986  77.8180008  71.5719986  73.2200012
  77.7620010  69.7730026  73.3059998  76.2360001  70.7080002  73.0930023
  79.0569992  70.3109970  69.4089966  79.6709976  71.1490021  68.7460022
  78.4390030  69.2779999  68.8089981  78.0240021  68.5390015  69.3339996
  78.3020020  69.1579971  67.3720016  79.2300034  69.4589996  66.9079971
  78.0130005  67.7149963  66.9570007  77.9049988  67.6729965  65.8519974
  79.2570038  66.8820038  67.3199997  79.3909988  66.8079987  68.4209976
  80.1709976  67.3430023  66.8889999  79.1699982  65.8470001  66.9250031
  76.7099991  67.1480026  67.5820007  75.8539963  67.7990036  67.3030014
  76.7880020  67.1529999  68.6910019  76.3789978  65.7220001  67.1230011
  77.1520004  65.0029984  67.4710007  76.3249969  65.6719971  66.0149994
  75.3990021  65.4000015  67.5350037  77.2080002  70.0609970  66.8030014
  77.1669998  70.3099976  65.5989990  76.2819977  70.5670013  67.6470032
  76.4110031  70.4850006  68.6320038  75.0910034  71.2679977  67.1959991
  74.3339996  71.0640030  67.9390030  74.7870026  70.8850021  66.2330017
  75.2500000  72.7799988  67.1750031  75.4929962  73.3590012  68.2409973
  75.1080017  73.4960022  66.0579987  74.9349976  72.9380035  64.7160034
  73.8750000  72.6320038  64.5910034  75.6060028  72.0709991  64.5350037
  75.0429993  74.9580002  66.0490036  75.9929962  75.3239975  66.4110031
  74.8119965  75.3229980  64.5709991  75.3470001  76.2529984  64.2819977
  73.7269974  75.4530029  64.3720016  75.2829971  74.0970001  63.7859993
  74.7929993  74.0080032  62.7929993  76.3850021  74.1309967  63.6479988
  73.9530029  75.5329971  66.9599991  72.7880020  75.1429977  66.8389969
  74.3000031  76.4609985  67.8740005  75.2289963  76.8180008  67.9400024
  73.3280029  77.0370026  68.7750015  72.4550018  77.2959976  68.1940002
  72.9120026  76.0469971  69.9049988  72.6330032  75.0630035  69.4700012
  72.0189972  76.4420013  70.4359970  74.0159988  75.8430023  70.9390030
  73.9240036  76.3809967  72.0459976  75.0729980  75.0810013  70.5879974
  75.0810013  74.6029968  69.7089996  75.8119965  74.9560013  71.2500000
  73.8740005  78.3489990  69.3399963  75.0559998  78.6650009  69.2030029
  73.0019989  79.1460037  69.9929962  72.0390015  78.8939972  70.0490036
  73.3619995  80.4390030  70.5550003  74.2880020  80.7839966  70.1179962
  72.2570038  81.4749985  70.2020035  72.4660034  82.4309998  70.7289963
  71.2779999  81.1019974  70.5699997  72.1579971  81.7679977  68.6859970
  72.0000000  80.8130035  68.1419983  73.1240005  82.1819992  68.3249969
  71.0189972  82.7190018  68.2870026  70.0459976  82.3270035  68.6529999
  70.9860001  82.8300018  67.1819992  71.3030014  84.0510025  68.9140015
  72.1719971  84.1880035  69.3880005  70.5550003  85.1360016  68.7519989
  69.4169998  85.1330032  68.0999985  69.1220016  84.3050003  67.6240005
  69.0339966  86.0230026  67.8489990  70.9449997  86.2779999  69.2750015
  71.8030014  86.3320007  69.7870026  70.3990021  87.0960007  69.0970001
  73.5800018  80.4309998  72.0749969  73.8529968  81.4729996  72.6740036
  73.4759979  79.2630005  72.7470016  73.4059982  78.3960037  72.2600021
  73.4779968  79.1800003  74.2040024  73.1859970  80.1399994  74.6029968
  72.4599991  78.1250000  74.7180023  72.5559998  77.9759979  75.8150024
  72.6299973  77.1520004  74.2080002  71.0390015  78.6190033  74.4449997
  70.7860031  79.7949982  74.1640015  70.0500031  77.7009964  74.5309982
  69.1139984  78.0410004  74.4369965  70.2509995  76.7539978  74.7829971
  74.8720016  78.9410019  74.7779999  75.7979965  78.4960022  74.0989990
  75.0670013  79.3050003  76.0660019  74.3109970  79.6110001  76.6380005
  76.3899994  79.4550018  76.6449966  77.0970001  78.8379974  76.1110001
  76.8430023  80.9499969  76.6360016  77.9069977  81.0130005  76.9499969
  76.2409973  81.5029984  77.3880005  76.6579971  81.6920013  75.2890015
  75.6110001  81.5500031  74.9459991  77.3130035  81.2600021  74.5019989
  76.8229980  83.2190018  75.3600006  76.3119965  83.6110001  76.2649994
  76.3830032  83.6819992  74.4509964  78.2819977  83.5520020  75.4079971
  78.9530029  82.8320007  75.5820007  78.7399979  84.7959976  75.4619980
  77.9420013  85.8359985  75.5849991  76.9629974  85.6780014  75.7170029
  78.3199997  86.7549973  75.6959991  80.0339966  85.0230026  75.3669968
  80.6190033  84.3160019  74.9690018  80.3330002  85.9749985  75.3010025
  76.3700027  78.9720001  78.0940018  75.3929977  79.1539993  78.8239975
  77.4649963  78.3339996  78.5449982  78.2350006  78.1790009  77.9300003
  77.6589966  77.8870010  79.9059982  76.7089996  77.6129990  80.3389969
  78.6129990  76.6740036  79.9479980  79.6009979  76.9339981  79.5110016
  78.1969986  75.8310013  79.3570023  78.7669983  76.3209991  80.9899979
  78.2860031  78.9860001  80.7480011  79.4020004  79.4270020  80.4749985
  77.5910034  79.4479980  81.8079987  76.6760025  79.1090012  82.0120010
  78.1439972  80.4280014  82.7310028  78.9359970  80.9759979  82.2419968
  77.1279984  81.4700012  83.1979980  76.2549973  80.9649963  83.6630020
  77.7590027  82.4329987  84.2289963  78.6859970  82.8889999  83.8209991
  78.0039978  81.9150009  85.1819992  77.0459976  83.2509995  84.4670029
  76.6470032  82.2720032  81.9739990  76.1579971  81.6149979  81.2239990
  77.5049973  82.7890015  81.4929962  75.9120026  83.0429993  82.2890015
  78.7620010  79.7210007  83.9260025  78.0989990  78.9950027  84.6719971
  80.0709991  79.9359970  84.1330032  80.5839996  80.4879990  83.4800034
  80.8119965  79.4779968  85.2900009  80.1969986  78.8379974  85.9059982
  82.0859985  78.7229996  84.9110031  82.7409973  79.3740005  84.2929993
  82.8570023  78.2939987  86.1760025  82.2109985  77.6780014  86.8379974
  83.2239990  79.1709976  86.7509995  83.7409973  77.6839981  85.8909988
  81.7099991  77.4860001  84.0709991  81.2239990  77.7799988  83.1149979
  81.0139999  76.8290024  84.6360016  82.6220016  76.9010010  83.8239975
  81.1549988  80.7229996  86.0869980  81.9250031  81.5719986  85.6419983
  80.5559998  80.8909988  87.2799988  79.9229965  80.2089996  87.6389999
  80.6930008  82.1009979  88.0790024  81.3730011  82.7829971  87.5899963
  79.3519974  82.8700027  88.2649994  79.0419998  83.2379990  87.2639999
  79.4919968  83.7620010  88.9130020  78.2979965  82.0390015  88.7740021
  78.5059967  81.8180008  89.6849976  81.3059998  81.8140030  89.4339981
  80.9830017  80.8280029  90.0989990  82.2320023  82.6849976  89.8700027
  82.4929962  83.4690018  89.3109970  82.9130020  82.5879974  91.1389999
  82.5100021  81.7590027  91.7009964  84.4380035  82.3570023  90.9400024
  84.8669968  83.2200012  90.3860016  84.5680008  81.4609985  90.2949982
  85.2160034  82.1449966  92.2030029  84.9160004  81.1770020  93.1250000
  84.1179962  80.4570007  93.0210037  85.7990036  81.2529984  94.1689987
  85.8919983  80.5989990  94.8880005  86.6969986  82.2480011  93.9489975
  86.3619995  82.8550034  92.7160034  87.1340027  83.9169998  92.2490005
  86.9219971  84.3830032  91.2979965  88.2109985  84.3610001  93.0250015
  88.8119965  85.1869965  92.6750031  87.7880020  82.6579971  94.6999969
  88.0520020  82.1549988  95.6190033  88.5410004  83.7340012  94.2249985
  89.3929977  84.0839996  94.7900009  82.6660004  83.8519974  91.9560013
  83.0019989  84.9670029  91.5530014  82.0709991  83.6869965  93.1500015
  81.7750015  82.7809982  93.4430008  81.8659973  84.7600021  94.1129990
  82.2350006  85.6999969  93.7279968  80.4039993  84.9749985  94.5059967
  79.9869995  84.0569992  94.9729996  79.6230011  85.2890015  93.3529968
  78.7009964  85.2139969  93.6100006  80.2740021  86.1600037  95.4759979
  80.6829987  87.0839996  95.0159988  80.8170013  85.9629974  96.4250031
  79.2080002  86.3369980  95.7330017  82.6330032  84.3349991  95.3519974
  82.2939987  83.2760010  95.8899994  83.6490021  85.0370026  95.8700027
  84.3529968  86.0940018  95.1370010  83.9309998  87.0749969  95.4430008
  84.2829971  85.9749985  94.0339966  84.4879990  84.4710007  96.9250031
  84.7819977  83.4729996  96.6340027  85.6949997  85.4240036  97.0049973
  86.6179962  84.8939972  97.3229980  85.5080032  86.2710037  97.6979980
  85.8089981  85.9749985  95.5830002  86.3590012  86.9390030  95.5299988
  86.3190002  85.2279968  94.9369965  83.7549973  84.3799973  98.2490005
  83.8629990  83.3659973  98.9420013  83.0000000  85.4280014  98.6139984
  82.9779968  86.2480011  98.0469971  82.1429977  85.4160004  99.7779999
  81.9250031  84.3939972 100.0520020  82.8170013  86.1470032 100.9639969
  83.0199966  87.1979980 100.6679993  83.8020020  85.6669998 101.1510010
  82.0230026  86.1470032 102.2880020  81.0120010  86.5709991 102.1050034
  81.8570023  84.7300034 102.8580017  82.8529968  84.2699966 103.0329971
  81.2829971  84.0800018 102.1620026  81.3150024  84.7610016 103.8270035
  82.7239990  87.0490036 103.3099976  82.8209991  88.0830002 102.9160004
  83.7399979  86.6569977 103.5279999  82.1539993  87.0920029 104.2630005
  80.8239975  86.0849991  99.4229965  80.7919998  87.2139969  98.9309998
  79.6880035  85.3929977  99.6529999  79.7160034  84.4670029 100.0220032
  78.3649979  85.9309998  99.3430023  78.4540024  86.7040024  98.5930023
  77.3779984  84.8960037  98.8000031  77.2210007  84.0889969  99.5459976
  77.8939972  84.3190002  97.6019974  77.3450012  83.5589981  97.3949966
  76.0289993  85.5469971  98.4390030  76.1770020  86.3769989  97.7160034
  75.5139999  85.9469986  99.3379974  75.3499985  84.7990036  97.9749985
  77.7659988  86.5540009 100.5839996  77.4660034  85.8679962 101.5619965
  77.5680008  87.8840027 100.5690002  77.8450012  88.4309998  99.7829971
  76.9280014  88.6210022 101.6419983  76.5080032  87.9250031 102.3529968
  77.9110031  89.5660019 102.3840027  77.3560028  90.2570038 103.0530014
  78.4319992  90.1880035 101.6250000  78.9759979  88.8450012 103.2399979
  79.6149979  89.6210022 103.7129974  79.6330032  88.2460022 102.5749969
  78.3850021  87.9290009 104.3199997  77.9110031  87.0370026 103.8570023
  77.6100006  88.4499969 104.9209976  79.5019989  87.4560013 105.2009964
  79.8659973  86.5339966 105.0729980  79.9100037  88.0989990 106.2839966
  79.5100021  89.2939987 106.6380005  78.8550034  89.7910004 106.0690002
  79.5979996  89.4380035 107.6240005  80.7180023  87.5339966 107.1529999
  80.9710007  88.1129990 107.9290009  81.0889969  86.6159973 107.0100021
  75.7389984  89.4029999 101.1110001  75.6230011  89.6630020  99.9160004
  74.7939987  89.7399979 102.0100021  74.9020004  89.4950027 102.9700012
  73.5179977  90.3619995 101.7109985  73.0039978  89.7220001 101.0090027
  72.7129974  90.4300003 103.0250015  71.7470016  90.9540024 102.8619995
  73.2750015  90.9789963 103.8109970  72.4039993  89.0169983 103.4909973
  71.7939987  88.2360001 102.7080002  72.7480011  88.6640015 104.6490021
  73.5690002  91.7369995 101.0319977  72.7809982  92.0250015 100.1289978
  74.4929962  92.6340027 101.4449997  75.1139984  92.3970032 102.1890030
  74.7040024  93.9069977 100.7580032  75.3980026  94.4899979 101.3460007
  73.7480011  94.4000015 100.6579971  75.2890015  93.7620010  99.3690033
  76.0770035  92.8580017  99.0920029  74.9570007  94.6930008  98.4589996
  74.4609985  95.4980011  98.7740021  75.3840027  94.6520004  97.0650024
  76.4540024  94.5080032  97.0410004  75.0910034  95.5899963  96.6179962
  74.7639999  93.5490036  96.2289963  75.3840027  93.0550003  95.2860031
  73.5189972  93.1350021  96.5449982  73.0530014  93.5429993  97.3259964
  72.8550034  92.0169983  95.8929977  73.5459976  91.5500031  95.2070007
  72.4260025  90.9329987  96.9130020  71.8209991  90.1529999  96.4029999
  71.7799988  91.3990021  97.6880035  73.6230011  90.2399979  97.6039963
  73.2649994  89.4850006  98.3359985  74.1959991  91.0070038  98.1679993
  74.5719986  89.5540009  96.6159973  74.1989975  89.1129990  95.5240021
  75.8550034  89.4300003  97.0230026  76.0970001  89.7679977  97.9329987
  76.5309982  89.0240021  96.4089966  71.6559982  92.4169998  95.0469971
  70.6269989  92.8899994  95.5319977  71.7839966  92.2310028  93.7210007
  72.6470032  91.8939972  93.3509979  70.7190018  92.3929977  92.7529984
  70.2480011  93.3420029  92.9629974  71.2839966  92.4690018  91.3089981
  70.4520035  92.4420013  90.5739975  71.9219971  91.5780029  91.1230011
  72.0889969  93.7559967  91.0319977  72.9020004  93.8590012  91.7819977
  71.4039993  94.6190033  91.1750031  72.7979965  93.8229980  89.3580017
  73.0059967  95.6259995  89.3199997  73.6009979  95.9889984  90.1849976
  72.0189972  96.1360016  89.3539963  73.5179977  95.9479980  88.3880005
  69.6039963  91.3440018  92.8190002  69.8140030  90.1800003  93.1760025
  68.3720016  91.7429962  92.4280014  68.1989975  92.7050018  92.2340012
  67.2870026  90.8359985  92.0770035  67.0749969  90.2080002  92.9290009
  66.0270004  91.6740036  91.7200012  66.2969971  92.3669968  90.8949966
  65.7679977  92.3020020  92.5999985  64.7610016  90.9020004  91.2890015
  65.0100021  90.2340012  90.4369965  64.1930008  90.0449982  92.4280014
  63.9039993  90.6849976  93.2890015  64.9430008  89.3059998  92.7819977
  63.2929993  89.4919968  92.0849991  63.6899986  91.8880005  90.7959976
  64.0770035  92.4929962  89.9489975  63.3969994  92.5780029  91.6159973
  62.7849998  91.3430023  90.4540024  67.6689987  89.9290009  90.9010010
  68.2170029  90.3899994  89.8970032  67.4079971  88.6039963  90.9840012
  66.9280014  88.2099991  91.7639999  67.7710037  87.6709976  89.9179993
  68.6849976  88.0159988  89.4580002  68.0599976  86.2200012  90.3990021
  68.1669998  85.5410004  89.5260010  67.2149963  85.8470001  91.0159988
  69.2870026  86.1510010  91.1350021  69.1589966  86.6279984  91.9580002
  66.7399979  87.6320038  88.8059998  65.9700012  86.6819992  88.6729965
  66.7060013  88.6839981  87.9629974  67.3069992  89.4629974  88.1250000
  65.8089981  88.7699966  86.8280029  64.8130035  88.5780029  87.1989975
  65.7929993  90.1890030  86.2089996  65.1070023  90.1900024  85.3359985
  66.8059998  90.4589996  85.8420029  65.3020020  91.2659988  87.1969986
  66.0849991  91.4739990  87.9580002  64.4140015  90.8730011  87.7360001
  64.8720016  92.5759964  86.5230026  64.4570007  93.2730026  87.2829971
  64.0780029  92.3669968  85.7740021  66.0660019  93.2249985  85.8929977
  66.7460022  93.6429977  86.4960022  66.1569977  93.5889969  84.6220016
  65.3830032  93.1660004  83.6539993  64.7170029  92.4369965  83.8150024
  65.5110016  93.5910034  82.7580032  67.0650024  94.4710007  84.2870026
  66.9609985  94.8440018  83.3649979  67.3170013  95.1200027  85.0039978
  66.0859985  87.7389984  85.7389984  67.1330032  87.7559967  85.0889969
  65.1320038  86.8069992  85.5189972  64.3369980  86.7620010  86.1200027
  65.1940002  85.8000031  84.4739990  66.1220016  85.2610016  84.5940018
  64.0169983  84.8069992  84.6419983  63.0480003  85.3140030  84.4459991
  64.0090027  84.4810028  85.7040024  64.1279984  83.5500031  83.7649994
  65.1309967  83.0999985  83.9260025  64.0520020  83.8219986  82.6910019
  63.0499992  82.5029984  84.1039963  62.0600014  82.9079971  83.8050003
  63.0369987  82.3489990  85.2040024  63.2999992  81.1600037  83.4079971
  64.2620010  80.7239990  83.7490005  63.3409996  81.3089981  82.3069992
  62.2229996  80.2030029  83.7080002  61.3370018  80.5329971  83.2760010
  62.0509987  80.1200027  84.7310028  62.4249992  79.2649994  83.3059998
  65.2009964  86.4079971  83.0709991  65.9400024  85.9769974  82.1839981
  64.3889999  87.4680023  82.8690033  63.8170013  87.8010025  83.6149979
  64.2829971  88.1819992  81.6119995  64.8489990  87.6610031  80.8539963
  62.8170013  88.2890015  81.1250000  62.7239990  88.9759979  80.2570038
  62.1520004  88.6620026  81.9339981  62.3499985  86.9300003  80.6880035
  62.5890007  86.5049973  79.3730011  63.1139984  87.1539993  78.6880035
  62.1549988  85.2509995  78.9349976  62.3520012  84.9540024  77.9160004
  61.5079994  84.3840027  79.8219986  61.1240005  83.0960007  79.3960037
  60.9780006  82.5849991  80.1959991  61.6669998  86.0699997  81.5640030
  61.4679985  86.3880005  82.5770035  61.2620010  84.7979965  81.1380005
  60.7560005  84.1429977  81.8320007  64.8919983  89.5699997  81.7119980
  64.5319977  90.3870010  82.5630035  65.8590012  89.8659973  80.8229980
  66.1539993  89.1959991  80.1470032  66.5670013  91.1299973  80.7900009
  65.9789963  91.8960037  81.2720032  67.9599991  91.0319977  81.4729996
  68.4199982  92.0429993  81.4820023  68.6149979  90.3580017  80.8789978
  67.8899994  90.4800034  82.9189987  67.4810028  89.4479980  82.9049988
  67.2099991  91.1149979  83.5270004  69.2539978  90.4580002  83.6129990
  70.1760025  91.2180023  83.3040009  69.3949966  89.5490036  84.6070023
  68.6460037  88.9150009  84.8030014  70.2659988  89.5009995  85.0960007
  66.7310028  91.5159988  79.3280029  67.0869980  90.6880035  78.4899979
  66.4229965  92.7760010  78.9670029  66.1119995  93.4339981  79.6480026
  66.4369965  93.2310028  77.5830002  65.8550034  92.5189972  77.0169983
  65.7509995  94.6090012  77.4300003  65.7969971  94.9349976  76.3690033
  66.3000031  95.3560028  78.0429993  64.2639999  94.6330032  77.8440018
  64.1930008  94.3450012  78.9150009  63.7109985  96.0530014  77.7089996
  63.7120018  96.3519974  76.6380005  64.3320007  96.7809982  78.2740021
  62.6710014  96.1060028  78.0940018  63.4000015  93.6589966  77.0260010
  63.6959991  92.6050034  77.2139969  63.5029984  93.8690033  75.9400024
  62.3300018  93.7730026  77.3000031  67.7919998  93.2460022  76.8789978
  67.8889999  92.9570007  75.6880035  68.8960037  93.5989990  77.5680008
  68.8330002  93.8539963  78.5289993  70.2070007  93.6800003  76.9309998
  70.0830002  94.3570023  76.0979996  71.2310028  94.3550034  77.8860016
  71.4499969  93.7109985  78.7649994  70.7979965  95.3059998  78.2649994
  72.5220032  94.6869965  77.1790009  73.6719971  93.8929977  77.3320007
  73.6370010  93.0159988  77.9609985  74.8600006  94.2269974  76.6640015
  75.7320023  93.6009979  76.7799988  74.9100037  95.3690033  75.8550034
  76.0930023  95.7249985  75.1669998  76.7119980  94.9929962  75.2249985
  72.5849991  95.8290024  76.3639984  71.7099991  96.4509964  76.2480011
  73.7740021  96.1689987  75.7070007  73.8160019  97.0419998  75.0719986
  70.7340012  92.3690033  76.2969971  71.1770020  92.4209976  75.1470032
  70.6770020  91.1679993  76.8820038  70.5569992  90.9380035  78.3259964
  69.6809998  91.4589996  78.7669983  71.4909973  91.2770004  78.8239975
  71.0149994  89.9390030  76.1559982  71.9000015  90.0989990  75.5579987
  71.2549973  88.9160004  77.2839966  72.3259964  88.9550018  77.5749969
  71.0070038  87.8700027  77.0009995  70.4079971  89.4240036  78.4509964
  69.3440018  89.1419983  78.2949982  70.7509995  89.0400009  79.4349976
  69.9069977  89.4769974  75.2080002  70.0879974  88.4619980  74.5350037
  68.7710037  90.1969986  75.1050034  68.6309967  91.0000000  75.6790009
  67.6630020  89.8489990  74.2289963  67.7220001  88.8119965  73.9339981
  66.3460007  90.1050034  75.0080032  66.1959991  91.1969986  75.1490021
  66.4929962  89.6630020  76.0169983  65.0719986  89.4970016  74.3889999
  65.1949997  88.3939972  74.3310013  64.9619980  89.8639984  73.3460007
  63.5449982  89.9039993  75.2929993  63.9679985  89.0709991  76.8470001
  64.7850037  89.5989990  77.3830032  64.2910004  88.0230026  76.6640015
  63.0890007  89.0419998  77.5250015  67.6910019  90.7170029  72.9680023
  66.9479980  90.5049973  72.0120010  68.6070023  91.7050018  72.9140015
  69.2060013  91.8610001  73.6959991  68.7109985  92.6559982  71.8099976
  67.9430008  92.4520035  71.0790024  68.5380020  94.1080017  72.2460022
  68.7809982  94.8119965  71.4219971  69.3239975  94.4150009  73.3919983
  68.8450012  94.0319977  74.1299973  67.0810013  94.3629990  72.6510010
  66.7679977  93.6969986  73.4830017  66.3980026  94.1869965  71.7929993
  66.9520035  95.4169998  72.9789963  70.0270004  92.4820023  71.0699997
  70.4800034  93.3590012  70.3339996  70.6709976  91.3089981  71.2419968
  70.2229996  90.5979996  71.7779999  72.0260010  91.0039978  70.8229980
  72.6780014  91.6809998  71.3539963  72.3590012  89.5619965  71.2480011
  71.6910019  88.8379974  70.7330017  72.2180023  89.4459991  72.3440018
  73.4140015  89.3099976  71.0070038  72.3310013  91.1920013  69.3349991
  73.3960037  91.6940002  68.9729996  71.3970032  90.8369980  68.4280014
  70.6119995  90.2910004  68.7080002  71.4980011  91.0520020  66.9919968
  72.3769989  90.5270004  66.6500015  70.2590027  90.4479980  66.2720032
  70.3399963  90.6969986  65.1920013  69.3219986  90.9069977  66.6539993
  70.1800003  88.9020004  66.3339996  71.2009964  88.4670029  66.3889999
  69.7170029  88.5390015  65.3919983  69.3529968  88.3550034  67.4960022
  68.4250031  87.5390015  67.2460022  69.6809998  88.6419983  68.6790009
  71.6750031  92.5100021  66.5429993  72.0370026  92.7860031  65.3970032
  71.4720001  93.4869995  67.4509964  71.1729965  93.2580032  68.3740005
  71.6790009  94.8929977  67.1709976  71.5429993  95.0660019  66.1139984
  70.6419983  95.7539978  67.9349976  70.8519974  96.8310013  67.7580032
  70.7379990  95.5660019  69.0250015  69.1969986  95.4599991  67.4789963
  69.0029984  94.3700027  67.5729980  69.1080017  95.7180023  66.4029999
  68.0960007  96.1699982  68.2770004  68.1279984  95.8550034  69.3420029
  67.0920029  95.9160004  67.8750000  68.3170013  97.6500015  68.2099991
  68.6969986  98.1419983  68.9940033  67.9639969  98.4100037  67.1839981
  67.4649963  97.9879990  66.0540009  67.2170029  97.0270004  65.9329987
  67.0759964  98.7160034  65.4899979  68.0979996  99.7099991  67.2699966
  67.9479980 100.2249985  66.4270020  68.4759979 100.0970001  68.1110001
  73.0899963  95.3560028  67.5210037  73.4430008  96.5159988  67.3199997
  73.9479980  94.4459991  68.0120010  73.6389999  93.5149994  68.1930008
  75.3639984  94.6809998  68.2139969  75.5279999  95.7249985  68.4359970
  75.8659973  93.8180008  69.3980026  75.7549973  92.7429962  69.1389999
  75.1829987  94.0169983  70.2500000  77.3229980  94.0800018  69.8420029
  77.4810028  95.1640015  70.0289993  78.0309982  93.7549973  69.0500031
  77.6520004  93.3119965  71.1190033  78.2170029  92.1869965  71.0220032
  77.3779984  93.8349991  72.2320023  76.1520004  94.3229980  66.9520035
  75.7379990  93.4649963  66.1679993  77.3160019  94.9759979  66.7129974
  77.6360016  95.6859970  67.3349991  78.2229996  94.6169968  65.6240005
  77.6600037  94.7129974  64.7070007  79.4160004  95.5719986  65.5189972
  79.9909973  95.5599976  66.4700012  80.3590012  95.1630020  64.3669968
  79.7969971  95.0859985  63.4119987  80.8600006  94.1920013  64.5680008
  81.1539993  95.9280014  64.2379990  78.9069977  97.0029984  65.2699966
  78.2870026  97.3769989  66.1129990  78.3000031  97.0329971  64.3399963
  79.7639999  97.6979980  65.1439972  78.7529984  93.1770020  65.7699966
  79.2460022  92.8389969  66.8519974  78.6959991  92.2880020  64.7720032
  77.8150024  92.4120026  63.6090012  78.3320007  93.0199966  62.8359985
  76.8399963  92.8769989  63.8699989  79.3199997  90.9680023  64.8420029
  78.8560028  90.4369965  65.6610031  78.9570007  90.3249969  63.4959984
  78.8889999  89.2180023  63.5629997  79.7020035  90.5979996  62.7179985
  77.6200027  90.9739990  63.1310005  77.3870010  90.9120026  62.0470009
  76.8010025  90.4980011  63.7120018  80.8290024  90.9670029  65.1050034
  81.5920029  91.5189972  64.3079987  81.2799988  90.3259964  66.2040024
  80.6320038  89.9029999  66.8339996  82.6869965  90.1900024  66.5650024
  83.3069992  90.5230026  65.7460022  83.0589981  91.0019989  67.8119965
  82.3629990  90.7340012  68.6350021  84.5080032  90.7300034  68.2740021
  85.2229996  90.9189987  67.4449997  84.6399994  89.6869965  68.6320038
  84.7730026  91.4089966  69.1129990  82.9020004  92.5039978  67.4970016
  81.8509979  92.7519989  67.2360001  83.5530014  92.7900009  66.6439972
  83.1920013  93.1159973  68.3779984  82.9850006  88.7089996  66.7740021
  82.2109985  87.9860001  67.4059982  84.1250000  88.2109985  66.2300034
  84.7559967  88.8199997  65.7539978  84.4660034  86.7860031  66.2310028
  84.4219971  86.4339981  67.2509995  85.4520035  86.6880035  65.8020020
  83.5360031  85.9160004  65.4069977  82.7480011  86.4079971  64.5979996
  83.6429977  84.5859985  65.5650024  84.2649994  84.2020035  66.2429962
  82.8020020  83.6220016  64.8750000  81.8949966  84.1119995  64.5530014
  83.4960022  82.9990005  63.6329994  82.7910004  82.2639999  63.1899986
  84.4020004  82.4459991  63.9609985  83.8899994  84.0350037  62.5509987
  84.7170029  84.6780014  62.9210014  83.0199966  84.6869965  62.3240013
  84.3519974  83.3639984  61.2579994  85.5410004  83.3330002  60.9239998
  83.3860016  82.8059998  60.4920006  83.6510010  82.3450012  59.6450005
  82.4290009  82.8730011  60.7750015  82.3740005  82.4739990  65.8349991
  82.9869995  82.3040009  66.9199982  81.4010010  81.7379990  65.5179977
 149.4470062  67.2460022  96.1740036 148.6600037  67.7939987  95.7699966
 149.0720062  66.6679993  96.9540024 149.7890015  66.5989990  95.4359970
 150.5820007  68.1289978  96.6409988 150.2709961  68.5810013  97.5709991
 151.8710022  67.2750015  96.9130020 151.6790009  66.6389999  97.8040009
 152.7299957  67.9319992  97.1679993 152.2100067  66.4179993  95.8079987
 152.9750061  65.8970032  96.0630035 150.8939972  69.3000031  95.7170029
 150.3679962  70.3980026  95.8909988 151.7630005  69.1060028  94.6979980
 152.2039948  68.2180023  94.5989990 152.2630005  70.1539993  93.7979965
 152.7539978  70.8970032  94.4100037 153.2929993  69.6190033  92.7979965
 152.8329926  68.8290024  92.1669998 154.3939972  69.0559998  93.5100021
 154.9400024  68.5979996  92.8669968 153.8630066  70.7340012  91.9000015
 154.2740021  71.5609970  92.5169983 153.0870056  71.1500015  91.2220001
 154.6799927  70.3379974  91.2590027 151.1750031  70.8840027  93.0360031
 151.1719971  72.1100006  92.9550018 150.1770020  70.1549988  92.4970016
 150.1840057  69.1600037  92.5660019 149.0509949  70.7409973  91.7839966
 149.4479980  71.3199997  90.9629974 148.1199951  69.6279984  91.2399979
 147.2339935  70.0569992  90.7239990 147.7530060  68.9950027  92.0759964
 148.8390045  68.7549973  90.2450027 149.0910034  69.2289963  88.9459991
 148.8150024  70.2389984  88.6839981 149.6849976  68.4029999  87.9830017
 149.8650055  68.7779999  86.9860001 150.0379944  67.0889969  88.3150024
 150.4889984  66.4420013  87.5780029 149.1999969  67.4339981  90.5650024
 148.9980011  67.0469971  91.5530014 149.8029938  66.6080017  89.6080017
 150.0829926  65.5960007  89.8600006 148.2200012  71.7070007  92.6250000
 147.8959961  72.8140030  92.1959991 147.8990021  71.3249969  93.8769989
 148.0729980  70.3889999  94.1740036 147.2799988  72.2040024  94.8600006
 146.3820038  72.6009979  94.4100037 146.8780060  71.4690018  96.1650009
 146.4949951  72.1920013  96.9169998 147.7610016  70.9550018  96.5989990
 145.8520050  70.5110016  95.9029999 146.3119965  69.7440033  95.5540009
 148.1139984  73.4150009  95.2300034 147.5959930  74.5250015  95.3320007
 149.4400024  73.2480011  95.4160004 149.8390045  72.3359985  95.3690033
 150.3580017  74.3499985  95.6640015 150.0059967  74.8779984  96.5380020
 151.7720032  73.7979965  95.9739990 152.1230011  73.1790009  95.1210022
 151.6840057  73.1250000  96.8529968 152.8370056  74.8690033  96.2750015
 152.4550018  75.5260010  97.0859985 153.0039978  75.4960022  95.3730011
 154.1670074  74.2340012  96.7269974 154.5919952  73.6299973  95.8970032
 153.9420013  73.5279999  97.5540009 155.2230072  75.2229996  97.2559967
 156.1009979  74.6620026  97.6419983 154.7980042  75.8310013  98.0830002
 155.6970062  76.1429977  96.1900024 154.9279938  76.7600021  95.8590012
 156.0670013  75.6050034  95.3799973 156.4609985  76.7470016  96.5530014
 150.4100037  75.3779984  94.5309982 150.3379974  76.5879974  94.7590027
 150.4770050  74.9100037  93.2649994 150.5930023  73.9329987  93.1039963
 150.3659973  75.7490005  92.0820007 151.1280060  76.5120010  92.1449966
 150.5690002  74.9219971  90.7839966 150.3289948  75.5419998  89.8939972
 149.8630066  74.0630035  90.7979965 151.9980011  74.3750000  90.5759964
 152.3040009  73.8119965  91.4840012 152.0260010  73.3970032  89.3899994
 151.7230072  73.9140015  88.4550018 151.3300018  72.5490036  89.5680008
 153.0489960  72.9879990  89.2500000 153.0180054  75.5039978  90.3560028
 153.0749969  76.1679993  91.2440033 152.7330017  76.1139984  89.4720001
 154.0279999  75.0780029  90.1760025 149.0350037  76.4879990  91.9810028
 148.9949951  77.6880035  91.7080002 147.9080048  75.7880020  92.2389984
 147.9620056  74.8089981  92.4189987 146.5839996  76.3840027  92.2789993
 146.3979950  76.8550034  91.3259964 145.5290070  75.2710037  92.5120010
 145.7389984  74.7799988  93.4869995 145.6600037  74.4970016  91.7259979
 144.0659943  75.7610016  92.4909973 143.8549957  76.1640015  91.4769974
 143.9250031  76.5970001  93.2089996 143.0260010  74.6780014  92.8020020
 143.1589966  73.8010025  92.1320038 142.0039978  75.0869980  92.6500015
 143.1809998  74.3199997  94.2519989 143.0559998  75.0429993  94.9309998
 143.5399933  73.1380005  94.7409973 143.7209930  73.0100021  96.0410004
 143.5570068  73.7839966  96.6520004 144.0290070  72.1289978  96.4000015
 143.7539978  72.0719986  94.0019989 144.0520020  71.2310028  94.4530029
 143.5709991  72.1070023  93.0199966 146.4309998  77.4619980  93.3550034
 145.9589996  78.5670013  93.0920029 146.8939972  77.1729965  94.5889969
 147.2590027  76.2639999  94.7730026 146.8609924  78.0680008  95.7320023
 145.8300018  78.3410034  95.8980026 147.3719940  77.3259964  96.9970016
 148.3630066  76.8799973  96.7649994 146.6719971  76.4850006  97.1930008
 147.5099945  78.1949997  98.2710037 146.5469971  78.7060013  98.4840012
 148.2879944  78.9749985  98.1190033 147.8880005  77.3639984  99.4950027
 147.0690002  76.5149994  99.9400024 149.0070038  77.5630035 100.0439987
 147.6170044  79.3779984  95.5289993 147.1549988  80.4540024  95.9120026
 148.8000031  79.3089981  94.8860016 149.1519928  78.4150009  94.6200027
 149.6439972  80.4430008  94.5630035 149.8930054  80.9300003  95.4950027
 150.9609985  79.9219971  93.9270020 150.6900024  79.2340012  93.0979996
 151.4830017  79.3160019  94.6979980 151.9170074  81.0110016  93.3820038
 152.1410065  81.7450027  94.1859970 151.4660034  81.5589981  92.5279999
 153.2469940  80.4089966  92.9199982 154.3079987  80.6409988  93.5080032
 153.1999969  79.6090012  91.8290024 154.0529938  79.2030029  91.5000000
 152.3300018  79.4550018  91.3600006 149.0140076  81.5279999  93.6819992
 149.2079926  82.7229996  93.9130020 148.2469940  81.1370010  92.6429977
 148.0690002  80.1669998  92.4970016 147.6999969  82.0390015  91.6389999
 148.5350037  82.5520020  91.1859970 146.9579926  81.2289963  90.5419998
 146.3390045  81.8960037  89.9039993 146.2709961  80.5149994  91.0449982
 147.8910065  80.4430008  89.5950012 148.6320038  79.8860016  90.2080002
 147.0970001  79.4069977  88.7839966 146.3500061  79.9130020  88.1370010
 146.5599976  78.7119980  89.4649963 147.7779999  78.8130035  88.1389999
 148.6519928  81.3870010  88.6500015 149.3009949  82.0859985  89.2210007
 147.9369965  81.9830017  88.0439987 149.2949982  80.8069992  87.9540024
 146.7790070  83.1490021  92.1419983 146.8950043  84.3000031  91.7160034
 145.8419952  82.8440018  93.0660019 145.7899933  81.9089966  93.4079971
 144.8679962  83.8130035  93.5780029 144.2239990  83.2939987  94.2720032
 144.3139954  84.1890030  92.7310028 145.4340057  85.0250015  94.3000031
 145.0749969  86.1500015  93.9380035 146.3359985  84.8949966  95.2760010
 146.4579926  83.6809998  96.0930023 147.2810059  83.0630035  95.6760025
 145.5220032  83.0839996  96.1309967 146.8939972  86.0520020  95.9710007
 146.0809937  86.6930008  96.2770004 147.6380005  85.4479980  97.1740036
 147.6770020  86.1510010  98.0329971 148.6719971  85.1470032  96.9010010
 146.8320007  84.1869965  97.4869995 147.4089966  83.4380035  98.0699997
 145.9089966  84.4580002  98.0429993 147.8220062  86.8590012  95.0839996
 147.8350067  88.0849991  95.1859970 148.6060028  86.2040024  94.2050018
 148.6109924  85.2070007  94.1949997 149.4270020  86.8679962  93.1989975
 150.0829926  87.5599976  93.7080002 150.2920074  85.8550034  92.4469986
 149.6529999  85.0260010  92.0759964 151.0149994  86.4950027  91.2440033
 151.5930023  87.3870010  91.5680008 150.3020020  86.7979965  90.4489975
 151.7239990  85.7649994  90.7979965 151.3309937  85.2770004  93.4290009
 150.8430023  84.7659988  94.2860031 151.9810028  86.0869980  93.8249969
 151.9759979  84.5360031  92.9100037 148.5890045  87.7030029  92.2300034
 148.8930054  88.8629990  91.9400024 147.4559937  87.1429977  91.7519989
 147.2570038  86.1910019  91.9729996 146.4779968  87.8430023  90.9189987
 147.0019989  88.2229996  90.0540009 145.3520050  86.9270020  90.4290009
 144.8020020  86.4960022  91.2929993 145.8829956  85.8580017  89.6539993
 146.3130035  85.2710037  90.2809982 144.3600006  87.6760025  89.5199966
 144.8999939  88.1470032  88.6709976 143.8040009  88.4589996  90.0790024
 143.6119995  86.9649963  89.1080017 145.8639984  89.0479965  91.6169968
 145.7850037  90.1419983  91.0559998 145.4600067  88.8909988  92.8970032
 145.4909973  87.9899979  93.3219986 144.9730072  89.9739990  93.7320023
 144.1349945  90.4260025  93.2220001 144.4640045  89.4140015  95.0869980
 145.2799988  88.8209991  95.5520020 143.6320038  88.7109985  94.8659973
 143.9850006  90.4830017  96.1019974 143.1829987  91.0979996  95.6399994
 144.8249969  91.1520004  96.3899994 143.4320068  89.8519974  97.3850021
 143.4100037  88.6330032  97.5800018 142.9620056  90.7190018  98.3130035
 142.5950012  90.3509979  99.1669998 142.9920044  91.7040024  98.1389999
 145.9869995  91.0930023  93.9609985 145.6699982  92.2760010  93.8420029
 147.2550049  90.7399979  94.2519989 147.4810028  89.7799988  94.3990021
 148.3569946  91.6740036  94.3949966 148.0820007  92.3830032  95.1620026
 149.6280060  90.9240036  94.8759995 149.7899933  90.0439987  94.2170029
 149.4160004  90.5350037  95.8949966 150.9239960  91.7699966  94.8970032
 150.7299957  92.7180023  95.4440002 151.2469940  92.0240021  93.8649979
 152.0749969  91.0390015  95.5839996 152.5359955  91.5049973  96.6620026
 152.5489960  90.0000000  95.0490036 148.6499939  92.5049973  93.1460037
 148.8260040  93.7249985  93.2129974 148.6549988  91.8629990  91.9550018
 148.5670013  90.8700027  91.9319992 148.7729950  92.5339966  90.6709976
 149.6920013  93.1029968  90.6770020 148.8419952  91.4530029  89.5479965
 147.9019928  90.8619995  89.5240021 149.6679993  90.7480011  89.7829971
 149.0769958  92.0210037  88.1640015 148.0130005  92.5289993  87.3960037
 147.0149994  92.5439987  87.8079987 148.2310028  93.0230026  86.1039963
 147.4080048  93.4199982  85.5279999 149.5160065  92.9850006  85.5500031
 149.6840057  93.3539963  84.5490036 150.3609924  91.9869995  87.5930023
 151.1860046  91.5810013  88.1600037 150.5820007  92.4639969  86.2939987
 151.5720062  92.4280014  85.8659973 147.6269989  93.5240021  90.4260025
 147.8350067  94.6800003  90.0479965 146.3780060  93.0899963  90.6989975
 146.2400055  92.1460037  90.9909973 145.1869965  93.9100037  90.6060028
 145.1499939  94.3040009  89.6009979 143.9250031  93.0169983  90.8089981
 144.0980072  92.3870010  91.7070007 143.8500061  92.3229980  89.9440002
 142.6159973  93.7259979  90.9840012 141.9790039  94.4940033  90.0429993
 142.3549957  94.6709976  89.0469971 140.8639984  95.0729980  90.5979996
 140.5379944  95.9589996  90.3479996 140.7389984  94.6699982  91.8939972
 141.8320007  93.8180008  92.1859970 141.9640045  93.2809982  93.4690018
 142.7989960  92.6439972  93.7229996 140.9880066  93.5830002  94.4229965
 141.0690002  93.1669998  95.4169998 139.7790070  94.9789963  92.8479996
 138.9490051  95.6309967  92.6169968 139.9140015  94.4160004  94.1179962
 139.1759949  94.6320038  94.8769989 145.1900024  95.1380005  91.5260010
 144.8809967  96.2500000  91.0960007 145.5970001  94.9720001  92.8010025
 145.8119965  94.0579987  93.1340027 145.6670074  96.0319977  93.7880020
 144.6719971  96.4390030  93.8939972 146.1150055  95.3820038  95.1299973
 147.1419983  94.9739990  95.0179977 145.4360046  94.5319977  95.3560028
 146.0850067  96.3219986  96.3270035 145.2799988  97.2880020  96.3479996
 146.7989960  96.0250015  97.3249969 146.5890045  97.1910019  93.3679962
 146.2409973  98.3720016  93.4540024 147.7850037  96.8629990  92.8280029
 148.0529938  95.9039993  92.7850037 148.7050018  97.8310013  92.2559967
 148.9160004  98.5650024  93.0189972 150.0310059  97.0979996  91.8889999
 149.8159943  96.2529984  91.2009964 150.4660034  96.6699982  92.8170013
 151.0829926  98.0179977  91.2679977 151.8269958  98.7080002  91.9710007
 151.1920013  98.0059967  89.9179993 151.8849945  98.5859985  89.4919968
 150.5989990  97.4160004  89.3690033 148.1179962  98.6029968  91.0640030
 148.2120056  99.8290024  90.9840012 147.4620056  97.8949966  90.1220016
 147.3899994  96.9029999  90.2030029 146.8000031  98.4899979  88.9739990
 147.5379944  99.0950012  88.4670029 146.3350067  97.3769989  88.0049973
 145.6199951  96.7119980  88.5370026 147.2220001  96.7620010  87.7419968
 145.6759949  97.8519974  86.6920013 144.7400055  98.3970032  86.9410019
 146.5800018  98.7969971  85.8840027 147.5410004  98.2959976  85.6380005
 146.7960052  99.7249985  86.4540024 146.0800018  99.0810013  84.9329987
 145.2949982  96.6389999  85.8320007 144.6260071  95.9580002  86.4010010
 146.2030029  96.0719986  85.5339966 144.7669983  96.9670029  84.9110031
 145.6499939  99.4369965  89.3399963 145.5319977 100.5439987  88.8020020
 144.8070068  99.0500031  90.3199997 144.8739929  98.1330032  90.7040024
 143.7669983  99.8970032  90.8779984 143.1109924 100.1839981  90.0690002
 142.9429932  99.1559982  91.9690018 142.3179932  99.8750000  92.5410004
 143.6519928  98.6890030  92.6859970 142.0070038  98.0619965  91.4140015
 141.5720062  97.4840012  92.2570038 142.6020050  97.3600006  90.7919998
 140.8430023  98.5790024  90.5550003 140.1699982  97.7080002  89.9309998
 140.5850067  99.8180008  90.4980011 144.2850037 101.1940002  91.4889984
 143.7400055 102.2730026  91.2509995 145.3820038 101.1240005  92.2699966
 145.7830048 100.2360001  92.4800034 146.0370026 102.2799988  92.8479996
 145.2980042 102.8089981  93.4309998 147.1620026 101.8219986  93.8050003
 147.9250031 101.2480011  93.2360001 146.7129974 101.1250000  94.5439987
 147.8540039 102.9649963  94.5670013 147.0690002 103.5729980  95.0660019
 148.3939972 103.6220016  93.8529968 148.8500061 102.4219971  95.6090012
 149.5950012 101.7990036  95.0680008 148.3190002 101.7470016  96.3130035
 149.6300049 103.4899979  96.3970032 150.1399994 104.1890030  95.6999969
 150.3959961 102.9980011  97.0339966 148.7369995 104.2789993  97.2860031
 148.2070007 103.6520004  97.9250031 148.0579987 104.8410034  96.7340012
 149.2980042 104.9329987  97.8679962 146.5720062 103.2760010  91.8150024
 146.3970032 104.4899979  91.9440002 147.2030029 102.7860031  90.7269974
 147.3950043 101.8099976  90.6529999 147.6049957 103.6149979  89.6019974
 148.2279968 104.4079971  89.9899979 148.4329987 102.7979965  88.5749969
 148.5670013 103.3919983  87.6449966 147.8739929 101.8769989  88.3030014
 149.8419952 102.4089966  89.0879974 150.3860016 101.8410034  88.3030014
 149.7449951 101.7539978  89.9800034 150.6799927 103.6299973  89.4609985
 151.0760040 103.7630005  90.6510010 150.9700012 104.4690018  88.5650024
 146.4450073 104.3160019  88.8929977 146.4960022 105.5139999  88.6050034
 145.3390045 103.5839996  88.6350021 145.3399963 102.6119995  88.8560028
 144.0989990 104.1500015  88.1019974 144.3710022 104.7190018  87.2259979
 143.1040039 103.0950012  87.6230011 142.9750061 102.3119965  88.4010010
 143.5780029 102.5100021  86.4079971 144.3760071 102.0240021  86.6279984
 141.7350006 103.6969986  87.2799988 141.8549957 104.5619965  86.5930023
 141.2070007 104.0469971  88.1930008 141.0980072 102.9319992  86.7870026
 143.4470062 105.1740036  89.0240021 143.0010071 106.2310028  88.5790024
 143.4369965 104.9260025  90.3509979 143.7510071 104.0419998  90.6890030
 142.9589996 105.8479996  91.3700027 141.9140015 106.0350037  91.1699982
 143.0659943 105.2070007  92.7829971 144.0850067 104.7740021  92.8759995
 142.3569946 104.3539963  92.8420029 142.8679962 106.1460037  94.0070038
 143.6430054 106.9420013  94.0019989 143.0140076 105.5530014  94.9349976
 141.4920044 106.8130035  94.1119995 140.5000000 106.3160019  93.5159988
 141.3919983 107.8379974  94.8450012 143.6360016 107.2149963  91.3509979
 142.9779968 108.2490005  91.4550018 144.9739990 107.2669983  91.1559982
 145.4929962 106.4169998  91.1169968 145.7070007 108.5220032  90.9810028
 146.7420044 108.2679977  90.8050003 145.5709991 109.1159973  91.8720016
 145.2530060 109.3629990  89.8030014 145.0229950 110.5660019  89.9290009
 145.0850067 108.7350006  88.6200027 145.2989960 107.7639999  88.5469971
 144.5350037 109.3710022  87.4300003 145.1439972 110.2330017  87.1959991
 144.5700073 108.3600006  86.2529984 143.9210052 107.4929962  86.5029984
 145.6049957 107.9680023  86.1559982 144.1360016 108.9079971  84.8750000
 143.1799927 109.4649963  84.9789963 145.1940002 109.8629990  84.3050003
 146.1750031 109.3470001  84.2259979 145.3130035 110.7539978  84.9580002
 144.9010010 110.2050018  83.2890015 143.8750000 107.7529984  83.8939972
 143.0700073 107.0910034  84.2779999 144.7969971 107.1480026  83.7620010
 143.5639954 108.1500015  82.9039993 143.1000061 109.8580017  87.6269989
 142.7460022 111.0000000  87.3270035 142.2550049 108.9850006  88.2080002
 142.5890045 108.0719986  88.4290009 140.8639984 109.2149963  88.5319977
 140.3309937 109.4390030  87.6200027 140.3450012 107.8880005  89.1449966
 140.9830017 107.6569977  90.0250015 140.5209961 107.0770035  88.4069977
 138.8780060 107.8239975  89.6080017 138.2070007 107.7500000  88.7259979
 138.6119995 108.7590027  90.1460037 138.6109924 106.6630020  90.5869980
 137.5440063 106.6610031  90.8949966 139.2460022 106.8089981  91.4869995
 138.9309998 105.3590012  89.9130020 138.6779938 105.2440033  88.9520035
 139.3979950 104.2809982  90.5390015 139.4179993 103.1220016  89.9069977
 138.7680054 102.9970016  89.1579971 139.7129974 102.3050003  90.4029999
 139.8359985 104.2860031  91.7770004 139.9429932 105.1510010  92.2679977
 140.1470032 103.4359970  92.2020035 140.6560059 110.3850021  89.4950027
 139.8249969 111.2679977  89.2730026 141.4589996 110.4440002  90.5759964
 142.0800018 109.6880035  90.7679977 141.4900055 111.5339966  91.5260010
 140.4869995 111.6539993  91.9089966 142.4510040 111.1809998  92.6900024
 143.4790039 111.0390015  92.2929993 142.1320038 110.1969986  93.0960007
 142.4969940 112.1999969  93.8560028 142.9709930 113.1439972  93.5120010
 143.1119995 111.7959976  94.6890030 141.1089935 112.5530014  94.3980026
 140.6950073 113.7149963  94.4300003 140.3619995 111.5230026  94.8580017
 139.4539948 111.7190018  95.2310028 140.7259979 110.5920029  94.8339996
 141.9029999 112.8720016  90.9179993 141.2610016 113.8970032  91.1439972
 142.9660034 112.8960037  90.0849991 143.4980011 112.0690002  89.9189987
 143.3970032 114.0879974  89.3750000 143.5610046 114.8639984  90.1090012
 144.7380066 113.8399963  88.6460037 144.5930023 113.0479965  87.8820038
 145.4589996 113.4369965  89.3899994 145.3560028 115.0940018  87.9729996
 144.6560059 115.5110016  87.2180023 146.2870026 114.7959976  87.4449997
 145.7259979 116.1930008  88.9749985 145.3159943 117.3730011  88.7929993
 146.4709930 115.9010010  89.9499969 142.3419952 114.6210022  88.4069977
 142.0590057 115.8150024  88.3619995 141.6770020 113.7350006  87.6370010
 141.9450073 112.7750015  87.6330032 140.5339966 114.0910034  86.8130035
 140.8509979 114.9049988  86.1780014 140.1390076 112.9280014  85.8759995
 139.1719971 113.1559982  85.3789978 140.0059967 112.0019989  86.4769974
 141.1929932 112.6920013  84.7750015 142.1779938 112.5049973  85.2539978
 141.2969971 113.6259995  84.1829987 140.8079987 111.3050003  83.6719971
 142.2559967 111.5500031  82.6039963 143.1860046 111.6220016  83.2080002
 142.1660004 112.4840012  82.0080032 142.3739929 110.7050018  81.8929977
 139.3240051 114.6330032  87.5810013 138.7010040 115.6200027  87.1829987
 138.9859924 114.0260010  88.7379990 139.4429932 113.1790009  88.9970016
 137.9920044 114.5559998  89.6689987 137.0590057 114.6539993  89.1350021
 137.7720032 113.5800018  90.8659973 138.7239990 113.4319992  91.4199982
 137.4810028 112.5940018  90.4459991 136.7440033 114.0080032  91.7710037
 137.0780029 114.7470016  92.2850037 138.3580017 115.9469986  90.1959991
 137.5429993 116.8720016  90.2070007 139.6309967 116.1470032  90.5879974
 140.2640076 115.3779984  90.6259995 140.2019958 117.4300003  90.9449997
 139.6040039 117.8330002  91.7490005 141.6369934 117.2229996  91.4990005
 142.1360016 116.4660034  90.8580017 141.5610046 116.7819977  92.5159988
 142.5489960 118.4609985  91.5279999 142.0870056 119.2580032  92.1480026
 142.6589966 118.8509979  90.4940033 143.9470062 118.1200027  92.0780029
 144.3130035 117.1890030  91.5950012 143.8509979 117.9049988  93.1630020
 145.0099945 119.2200012  91.8990021 145.9739990 118.8759995  92.3300018
 144.6929932 120.1490021  92.4199982 145.2330017 119.5439987  90.4690018
 144.4409943 120.1090012  90.1029968 145.3249969 118.6800003  89.8980026
 146.0950012 120.1159973  90.3610001 140.1649933 118.4850006  89.8339996
 139.8090057 119.6399994  90.0650024 140.4889984 118.0999985  88.5859985
 140.8589935 117.1859970  88.4359970 140.4089966 118.9329987  87.4079971
 141.0440063 119.7919998  87.5650024 140.9550018 118.1009979  86.2129974
 140.3849945 117.1510010  86.1250000 142.0140076 117.8399963  86.4240036
 140.9120026 118.8290024  84.8820038 141.4499969 119.9639969  84.7939987
 140.3760071 118.2470016  83.8980026 138.9909973 119.4700012  87.1510010
 138.7859955 120.6650009  86.9380035 137.9539948 118.6080017  87.2350006
 138.1210022 117.6340027  87.3679962 136.5670013 119.0459976  87.1959991
 136.4700012 119.6669998  86.3180008 135.5950012 117.8529968  87.0240021
 135.2209930 117.4789963  88.0009995 136.1759949 117.0260010  86.5630035
 134.4160004 118.1500015  86.0640030 134.8350067 118.6370010  85.1579971
 133.7409973 116.8539963  85.6029968 133.2579956 116.3580017  86.4720001
 134.4790039 116.1510010  85.1630020 132.9539948 117.0670013  84.8489990
 133.3560028 119.0910034  86.6569977 133.7680054 120.1119995  86.8059998
 132.9940033 118.7020035  87.6320038 132.4900055 119.1750031  85.9670029
 136.1829987 119.9359970  88.3860016 135.5169983 120.9599991  88.2289963
 136.6479950 119.6149979  89.6110001 137.1510010 118.7649994  89.7500000
 136.4700012 120.4550018  90.7850037 135.4060059 120.5709991  90.9339981
 137.0370026 119.7500000  92.0469971 138.0820007 119.4459991  91.8219986
 136.4620056 118.8150024  92.2119980 137.0789948 120.5790024  93.3560028
 137.6649933 121.5110016  93.2109985 137.5959930 119.9800034  94.1360016
 135.6920013 120.9250031  93.8960037 134.8690033 119.9950027  94.1159973
 135.4219971 122.1289978  94.1569977 137.0330048 121.8759995  90.6289978
 136.3699951 122.8600006  90.9660034 138.2409973 122.0289993  90.0350037
 138.7859955 121.2229996  89.8190002 138.8079987 123.3170013  89.6539993
 138.9179993 123.9140015  90.5469971 140.1990051 123.1470032  88.9660034
 140.5059967 124.1129990  88.5100021 140.0859985 122.4089966  88.1439972
 141.3639984 122.6849976  89.8860016 141.0500031 121.7910004  90.4660034
 141.6130066 123.4929962  90.6070023 142.6380005 122.3229980  89.1100006
 143.4329987 121.4759979  89.6119995 142.8769989 122.8909988  88.0080032
 137.9239960 124.1139984  88.6869965 137.6629944 125.3030014  88.8899994
 137.4010010 123.4609985  87.6259995 137.6490021 122.5110016  87.4540024
 136.4530029 124.0550003  86.6910019 136.9029999 124.9489975  86.2850037
 136.1459961 123.1029968  85.5350037 135.7989960 122.1250000  85.9319992
 135.0520020 123.6699982  84.6060028 135.3119965 124.7009964  84.2839966
 134.0610046 123.6940002  85.1070023 134.9570007 123.0339966  83.6999969
 137.4400024 122.8700027  84.7379990 138.2310028 122.3970032  85.3590012
 137.8450012 123.8330002  84.3600006 137.2369995 122.2020035  83.8730011
 135.1529999 124.4879990  87.3580017 134.6889954 125.6149979  87.1839981
 134.5650024 123.6129990  88.1969986 134.9589996 122.7040024  88.3109970
 133.3619995 123.8880005  88.9530029 132.5970001 124.1669998  88.2429962
 132.8939972 122.6100006  89.6910019 133.7319946 122.2409973  90.3209991
 132.6929932 121.8280029  88.9290009 131.6479950 122.7750015  90.5820007
 131.8650055 123.4830017  91.4100037 131.4290009 121.7900009  91.0459976
 130.3999939 123.2490005  89.8089981 130.2270050 122.5449982  88.9670029
 130.6000061 124.2529984  89.3779984 129.1419983 123.3150024  90.6930008
 129.3009949 124.0309982  91.5279999 128.9239960 122.3119965  91.1179962
 127.9530029 123.7600021  89.9160004 127.7620010 123.1149979  89.1230011
 128.0939941 124.7220001  89.5449982 127.1149979 123.7809982  90.5319977
 133.5019989 125.0589981  89.9189987 132.6540070 125.9520035  89.9710007
 134.6239929 125.1220016  90.6620026 135.2769928 124.3679962  90.6429977
 134.9770050 126.2249985  91.5260010 134.1880035 126.3359985  92.2559967
 136.2980042 125.9089966  92.2539978 137.1289978 125.7779999  91.5279999
 136.1929932 124.9649963  92.8300018 136.5670013 126.7210007  92.9629974
 135.1040039 127.5589981  90.7939987 134.6470032 128.5950012  91.2779999
 135.7140045 127.5640030  89.5920029 136.1280060 126.7279968  89.2389984
 135.7619934 128.7239990  88.7239990 136.1999969 129.5290070  89.2959976
 136.7089996 128.4570007  87.5220032 136.4579926 127.4690018  87.0820007
 137.7440033 128.3829956  87.9189987 136.6629944 129.5050049  86.3949966
 136.7729950 130.5169983  86.8389969 135.6790009 129.4629974  85.8799973
 137.7760010 129.2940063  85.3509979 137.6730042 128.2740021  84.9229965
 138.7559967 129.3470001  85.8730011 137.7369995 130.3320007  84.2160034
 137.8009949 131.3600006  84.6330032 136.7910004 130.2359924  83.6419983
 138.8710022 130.1399994  83.2799988 138.8359985 129.1889954  82.8619995
 139.7810059 130.2469940  83.7720032 138.8329926 130.8320007  82.5049973
 134.4080048 129.2590027  88.2460022 134.1540070 130.4649963  88.2890015
 133.4900055 128.3789978  87.7929993 133.7030029 127.4069977  87.7340012
 132.2440033 128.8170013  87.1729965 132.4109955 129.7810059  86.7149963
 131.8070068 127.8919983  86.0360031 130.9160004 128.3329926  85.5400009
 132.9219971 127.8300018  84.9710007 133.8329926 127.3349991  85.3700027
 133.1920013 128.8520050  84.6279984 132.5729980 127.2470016  84.0920029
 131.4279938 126.4869995  86.5449982 130.5480042 126.5240021  87.2210007
 132.2760010 126.0199966  87.0899963 131.1679993 125.8339996  85.6839981
 131.0879974 129.0209961  88.1529999 130.1490021 129.7700043  87.8730011
 131.1320038 128.4049988  89.3539963 131.8769989 127.7740021  89.5579987
 130.0820007 128.5039978  90.3590012 129.1799927 128.1750031  89.8649979
 130.3269958 127.4889984  91.5130005 131.3480072 127.6389999  91.9260025
 130.3249969 126.4720001  91.0650024 129.3209991 127.5169983  92.6930008
 129.3930054 128.4869995  93.2289963 129.5800018 126.7109985  93.4130020
 127.8820038 127.2730026  92.2239990 127.6139984 126.4079971  91.3850021
 126.9150009 128.0279999  92.7929993 125.9680023 127.8820038  92.5090027
 127.1569977 128.7180023  93.4759979 129.7299957 129.9129944  90.8759995
 128.5350037 130.2019958  90.9950027 130.6410065 130.8580017  91.1539993
 132.0529938 130.5850067  91.4349976 132.6329956 130.7120056  90.4960022
 132.2230072 129.5659943  91.8430023 130.2539978 132.1759949  91.6549988
 129.5850067 132.0350037  92.4919968 131.5820007 132.8300018  92.0690002
 131.4450073 133.5520020  92.9020004 132.0599976 133.3509979  91.2119980
 132.4559937 131.6410065  92.4619980 133.5420074 131.8719940  92.4319992
 132.1799927 131.2920074  93.4800034 129.5299988 133.0070038  90.6139984
 128.6750031 133.8119965  90.9739990 129.8650055 132.8470001  89.3199997
 130.5930023 132.2089996  89.0800018 129.1770020 133.4960022  88.2170029
 129.1990051 134.5590057  88.4069977 129.9669952 133.2089996  86.9059982
 130.0720062 132.1100006  86.7839966 130.9869995 133.6419983  86.9899979
 129.3430023 133.7700043  85.6539993 129.2299957 132.9730072  84.5029984
 129.5850067 131.9530029  84.5230026 128.6710052 133.4900055  83.3280029
 128.5729980 132.8540039  82.4609985 128.2330017 134.8190002  83.2919998
 127.6429977 135.3419952  82.1230011 127.6640015 134.6560059  81.4509964
 128.9049988 135.1040039  85.6029968 128.9980011 135.7380066  86.4729996
 128.3480072 135.6269989  84.4280014 128.0050049 136.6499939  84.3980026
 127.6940002 133.1060028  88.1200027 126.8099976 133.9519958  87.9619980
 127.3850021 131.8020020  88.2809982 128.1170044 131.1320038  88.3820038
 126.0260010 131.2989960  88.4010010 125.4810028 131.6000061  87.5189972
 126.0609970 129.7500000  88.4749985 126.7409973 129.4479980  89.3000031
 126.5009995 129.3730011  87.5279999 124.7070007 129.0350037  88.6910019
 124.2460022 129.4029999  89.6330032 123.7289963 129.3079987  87.5390015
 124.1539993 128.9450073  86.5790024 123.5270004 130.3959961  87.4449997
 122.7639999 128.7850037  87.7149963 124.9329987 127.5240021  88.8560028
 125.5899963 127.3219986  89.7300034 125.4199982 127.1110001  87.9469986
 123.9660034 126.9990005  89.0100021 125.2710037 131.8659973  89.6070023
 124.1299973 132.3289948  89.5029984 125.9300003 131.8890076  90.7870026
 126.8399963 131.4869995  90.8499985 125.4000015 132.4570007  92.0120010
 124.4670029 131.9530029  92.2190018 126.4209976 132.1660004  93.1490021
 127.3450012 132.7579956  92.9800034 126.6959991 131.0899963  93.1210022
 125.9020004 132.4669952  94.5490036 126.7460022 132.6049957  95.4759979
 124.6630020 132.4680023  94.7720032 125.0859985 133.9609985  91.8929977
 124.0169983 134.4409943  92.2779999 126.0110016 134.7369995  91.2870026
 126.8870010 134.3419952  91.0230026 125.8550034 136.1459961  91.0019989
 125.6660004 136.6430054  91.9420013 127.1910019 136.6640015  90.3970032
 127.3789978 136.1649933  89.4229965 128.0200043 136.3899994  91.0839996
 127.2429962 138.1730042  90.2030029 128.0010071 138.6340027  89.3069992
 126.6279984 138.9219971  91.0080032 124.6610031 136.4510040  90.0849991
 123.8519974 137.3379974  90.3600006 124.4810028 135.6809998  88.9869995
 125.1480026 134.9790039  88.7500000 123.3320007 135.8249969  88.1080017
 123.2959976 136.8659973  87.8239975 123.5049973 134.9750061  86.8239975
 123.3450012 133.8939972  87.0230026 124.5380020 135.1009979  86.4329987
 122.5459976 135.4440002  85.7549973 121.3259964 134.7859955  85.5189972
 121.0640030 133.9179993  86.1050034 120.4339981 135.2700043  84.5530014
 119.4840012 134.7790070  84.3970032 120.7639999 136.3979950  83.7929993
 120.0729980 136.7649994  83.0479965 122.8710022 136.5720062  84.9789963
 123.8089981 137.0800018  85.1460037 121.9860001 137.0480042  84.0019989
 122.2460022 137.9149933  83.4120026 121.9970016 135.5169983  88.8079987
 121.0090027 136.2380066  88.6529999 121.9469986 134.4539948  89.6419983
 122.7340012 133.8489990  89.7300034 120.7900009 134.1439972  90.4660034
 119.9420013 134.0269928  89.8069992 121.0120010 132.8029938  91.2160034
 121.9400024 132.8820038  91.8219986 121.1890030 132.0189972  90.4489975
 119.8430023 132.3710022  92.1350021 118.9140015 132.2779999  91.5339966
 119.6679993 133.1320038  92.9260025 120.1139984 131.0050049  92.7799988
 120.3779984 130.0039978  92.1060028 120.0410004 130.9409943  94.1309967
 120.2080002 130.0610046  94.5749969 119.8209991 131.7599945  94.6620026
 120.4229965 135.2550049  91.4560013 119.2610016 135.6529999  91.5759964
 121.4280014 135.8280029  92.1529999 122.3499985 135.4559937  92.0810013
 121.2770004 137.0019989  92.9940033 120.5220032 136.7799988  93.7340012
 122.6090012 137.2940063  93.7340012 123.4339981 137.2940063  92.9899979
 122.8040009 136.4530029  94.4339981 122.6669998 138.6239929  94.5080032
 121.8180008 138.6670074  95.2229996 122.5640030 139.4790039  93.8059998
 123.9929962 138.7879944  95.2760010 124.8270035 138.7010040  94.5479965
 124.0849991 137.9499969  95.9990005 124.0999985 140.1289978  96.0210037
 123.2839966 140.2189941  96.7689972 124.0210037 140.9730072  95.3020020
 125.4000015 140.2420044  96.7300034 126.1920013 140.1820068  96.0589981
 125.5039978 139.4810028  97.4309998 125.4649963 141.1529999  97.2289963
 120.7910004 138.2460022  92.2519989 119.8740005 138.9409943  92.6920013
 121.3679962 138.5220032  91.0640030 122.1419983 137.9730072  90.7580032
 120.9710007 139.5970001  90.1770020 121.0800018 140.5299988  90.7099991
 121.9160004 139.6009979  88.9440002 121.9209976 138.5740051  88.5220032
 122.9449997 139.8059998  89.3089981 121.5609970 140.5650024  87.7959976
 121.6869965 141.6159973  88.1330032 120.4929962 140.4470062  87.5120010
 122.3759995 140.2890015  86.5120010 122.0299988 140.9750061  85.7089996
 122.1240005 139.2599945  86.1760025 123.9089966 140.3699951  86.6350021
 124.3740005 140.0630035  85.6740036 124.2829971 139.6929932  87.4329987
 124.3539963 141.7550049  86.9380035 123.9990005 142.0720062  87.8629990
 124.0110016 142.4149933  86.2109985 125.3929977 141.8059998  86.9550018
 119.5179977 139.5099945  89.7269974 118.7699966 140.4880066  89.7969971
 119.0599976 138.3119965  89.3069992 119.6839981 137.5410004  89.2030029
 117.6620026 138.0809937  89.0080032 117.3769989 138.8580017  88.3150024
 117.4020004 136.7270050  88.2880020 117.7799988 135.9010010  88.9270020
 117.9879990 136.7149963  87.3450012 115.9560013 136.4839935  87.9530029
 115.1399994 135.4920044  88.4380035 115.4810028 134.6679993  89.0469971
 113.8399963 135.7279968  88.0449982 113.0630035 135.1649933  88.2220001
 113.7880020 136.8849945  87.3150024 115.1080017 137.3890076  87.2149963
 115.3389969 138.5700073  86.5009995 116.3369980 138.9680023  86.3899994
 114.2519989 139.2259979  85.9169998 114.4169998 140.1349945  85.3590012
 112.7080002 137.5500031  86.7460022 111.6999969 137.1739960  86.8359985
 112.9589996 138.7290039  86.0419998 112.1419983 139.2630005  85.5790024
 116.7360001 138.2649994  90.2109985 115.6790009 138.8809967  90.0930023
 117.1129990 137.7769928  91.4130020 117.9520035 137.2460022  91.5049973
 116.3160019 137.9790039  92.6110001 115.3369980 137.5679932  92.4110031
 116.9390030 137.2409973  93.8229980 117.9300003 137.6849976  94.0550003
 117.1269989 136.1889954  93.5189972 116.0690002 137.2489929  95.1080017
 115.9680023 138.2890015  95.4869995 116.5619965 136.6490021  95.9029999
 114.6539993 136.7019958  94.8870010 113.6389999 137.3710022  95.1070023
 114.5749969 135.4239960  94.4489975 113.6740036 135.0169983  94.3010025
 115.4110031 134.8910065  94.3150024 116.1139984 139.4570007  92.9649963
 115.0009995 139.8950043  93.2620010 117.1809998 140.2810059  92.8850021
 118.0879974 139.9109955  92.6989975 117.0849991 141.7259979  93.0230026
 116.6320038 141.9360046  93.9810028 118.4929962 142.3820038  92.9850006
 118.3919983 143.4850006  92.9039993 119.0270004 142.0299988  92.0759964
 119.3679962 142.0789948  94.2279968 120.3740005 142.5290070  94.0920029
 119.4980011 140.9810028  94.3369980 118.7720032 142.6399994  95.5159988
 118.6460037 143.8899994  95.6360016 118.4410019 141.8450012  96.4369965
 116.1959991 142.3999939  91.9739990 115.3440018 143.2319946  92.2919998
 116.3450012 142.0220032  90.6880035 117.0609970 141.3730011  90.4390030
 115.5039978 142.4880066  89.5999985 115.5500031 143.5670013  89.5910034
 116.0579987 141.9600067  88.2539978 116.0019989 140.8500061  88.2630005
 117.1350021 142.2259979  88.1930008 115.3349991 142.4810028  86.9889984
 114.2570038 142.2169952  87.0279999 115.7740021 141.9889984  86.0950012
 115.4820023 143.9909973  86.8010025 116.6389999 144.4900055  86.7310028
 114.4440002 144.6959991  86.6809998 114.0279999 142.1060028  89.7639999
 113.1179962 142.9230042  89.5989990 113.7529984 140.8489990  90.1640015
 114.4909973 140.1829987  90.2369995 112.4380035 140.3639984  90.5220032
 111.7900009 140.5189972  89.6719971 112.4909973 138.8410034  90.8229980
 113.2829971 138.6629944  91.5810013 112.8089981 138.3170013  89.8960037
 111.1800003 138.2209930  91.3509979 110.8610001 138.7530060  92.2730026
 111.3939972 137.1750031  91.6579971 109.8170013 138.2220001  90.1500015
 110.3410034 136.6549988  89.4029999 110.2060013 135.8170013  90.1210022
 111.4160004 136.6880035  89.1230011 109.7509995 136.4170074  88.4929962
 111.8040009 141.1139984  91.6930008 110.6500015 141.5339966  91.6269989
 112.5670013 141.3609924  92.7789993 113.4860001 140.9779968  92.8369980
 112.1330032 142.1430054  93.9219971 111.2419968 141.6730042  94.3109970
 113.2239990 142.1380005  95.0199966 114.1500015 142.5980072  94.6119995
 113.4670029 141.0780029  95.2500000 112.8509979 142.8609924  96.3369980
 112.7549973 143.9530029  96.1579971 113.6660004 142.7089996  97.0759964
 111.5550003 142.3430023  96.9609985 110.6699982 143.1699982  97.3069992
 111.4150009 141.1000061  97.1299973 111.7509995 143.5789948  93.5630035
 110.7269974 144.1109924  93.9980011 112.5459976 144.2330017  92.6920013
 113.3980026 143.8139954  92.3860016 112.1999969 145.5099945  92.0970001
 112.0250015 146.2039948  92.9069977 113.3870010 146.0339966  91.2490005
 113.6780014 145.2510071  90.5159988 114.2539978 146.1820068  91.9280014
 113.1470032 147.3480072  90.4739990 112.3079987 147.1970062  89.7610016
 112.7799988 148.5070038  91.4130020 113.5889969 148.6710052  92.1569977
 111.8359985 148.2910004  91.9589996 112.6389999 149.4440002  90.8330002
 114.3870010 147.7100067  89.6419983 114.6330032 146.8890076  88.9349976
 115.2630005 147.8789978  90.3040009 114.2050018 148.6360016  89.0550003
 110.9020004 145.4660034  91.2799988 110.0419998 146.3430023  91.3880005
 110.6949997 144.4089966  90.4670029 111.4079971 143.7220001  90.3529968
 109.4589996 144.1959991  89.7369995 109.2809982 145.1170044  89.2009964
 109.5839996 143.0489960  88.6959991 109.5660019 142.0559998  89.1930008
 110.5410004 143.1519928  88.1409988 108.4499969 143.1589966  87.7020035
 107.3460007 142.2899933  87.7340012 107.2959976 141.5050049  88.4749985
 106.2779999 142.4680023  86.8440018 105.4199982 141.8130035  86.8970032
 106.2880020 143.5279999  85.9270020 105.1829987 143.7449951  85.0820007
 105.2480011 144.6430054  84.7490005 108.4720001 144.1950073  86.7500000
 109.3130035 144.8710022  86.7170029 107.3929977 144.3849945  85.8750000
 107.4150009 145.2010040  85.1679993 108.2310028 143.9949951  90.6409988
 107.1510010 144.5019989  90.3389969 108.3669968 143.2929993  91.7939987
 109.2310028 142.8329926  91.9840012 107.3050003 143.1459961  92.7860031
 106.4840012 142.6250000  92.3160019 107.7590027 142.3549957  94.0479965
 106.9580002 142.3990021  94.8160019 108.6510010 142.8589935  94.4769974
 108.0989990 140.8639984  93.8529968 108.8389969 140.7519989  93.0319977
 107.1809998 140.3130035  93.5559998 108.6900024 140.2559967  95.1360016
 107.9449997 140.2799988  95.9589996 109.5780029 140.8470001  95.4459991
 109.0510025 138.8280029  94.8550034 108.3369980 138.2149963  94.5159988
 110.2689972 138.3079987  94.9550018 110.4570007 137.0489960  94.6009979
 109.6770020 136.4830017  94.3330002 111.3629990 136.6459961  94.7289963
 111.3239975 138.9539948  95.3899994 112.1940002 138.4620056  95.4199982
 111.2050018 139.7989960  95.9110031 106.7630005 144.4880066  93.2870026
 105.5540009 144.6889954  93.4140015 107.6589966 145.4589996  93.5630035
 108.6340027 145.2590027  93.5179977 107.2779999 146.8390045  93.7959976
 106.5479965 146.8459930  94.5930023 108.5110016 147.6540070  94.2789993
 109.3550034 147.4579926  93.5839996 108.8040009 147.2530060  95.2730026
 108.3040009 149.1869965  94.3700027 107.4319992 149.4049988  95.0240021
 108.1100006 149.6130066  93.3629990 109.5319977 149.9010010  94.9489975
 110.5510025 149.3040009  95.3079987 109.4380035 151.2489929  95.0439987
 110.2180023 151.7559967  95.4130020 108.6050034 151.7160034  94.7490005
 106.6080017 147.5249939  92.6009979 105.5680008 148.1730042  92.7350006
 107.1900024 147.3809967  91.3899994 108.0289993 146.8470001  91.3119965
 106.7239990 148.0260010  90.1740036 106.6959991 149.0879974  90.3690033
 107.7149963 147.7660065  89.0090027 107.5970001 146.7270050  88.6350021
 108.7529984 147.8569946  89.3929977 107.5429993 148.7649994  87.8499985
 107.9489975 149.7480011  88.1729965 106.4649963 148.9120026  87.6279984
 108.2249985 148.3229980  86.5419998 107.6930008 147.4190063  86.1760025
 109.2789993 148.0410004  86.7529984 108.1910019 149.4259949  85.4700012
 108.8789978 150.2510071  85.7529984 107.1630020 149.8359985  85.3740005
 108.5970001 148.9069977  84.1419983 107.8259964 148.3260040  83.7549973
 109.4629974 148.3339996  84.2009964 108.7600021 149.6900024  83.4779968
 105.3199997 147.6139984  89.7060013 104.5029984 148.4530029  89.3239975
 105.0120010 146.3009949  89.7190018 105.6949997 145.6419983  90.0250015
 103.7799988 145.7169952  89.2040024 103.6750031 146.0679932  88.1869965
 103.8929977 144.1920013  89.1370010 104.8600006 143.9680023  88.6380005
 103.9359970 143.5410004  90.5319977 102.9599991 143.6320038  91.0559998
 104.7269974 144.0079956  91.1559982 104.1770020 142.4620056  90.4290009
 102.7730026 143.5910034  88.2669983 102.7760010 144.0590057  87.2590027
 101.7760010 143.7449951  88.7310028 102.9339981 142.4989929  88.1439972
 102.5090027 146.1580048  89.9290009 101.4449997 146.3359985  89.3280029
 102.5989990 146.3569946  91.2600021 103.4919968 146.2799988  91.6979980
 101.4670029 146.5260010  92.1470032 100.8769989 145.6289978  92.0250015
 101.9339981 146.4980011  93.6279984 102.8610001 147.1020050  93.7300034
 102.2200012 145.4470062  93.8470001 100.9120026 147.0169983  94.6699982
  99.8769989 146.7460022  94.3710022 100.9690018 148.1250000  94.7249985
 101.1569977 146.4190063  96.0520020 100.9020004 145.1950073  96.2300034
 101.5849991 147.1600037  96.9759979 100.4629974 147.6459961  91.8509979
  99.2679977 147.3419952  91.8880005 100.7870026 148.8950043  91.5009995
 102.0950012 149.5019989  91.7679977 102.6989975 149.4479980  90.8369980
 102.6429977 149.0090027  92.5989990  99.7570038 149.9160004  91.3130035
  99.0869980 149.8880005  92.1600037 100.5429993 151.2359924  91.2490005
  99.9449997 152.0919952  91.6279984 100.8789978 151.4589996  90.2139969
 101.7760010 150.9570007  92.1110001 102.6210022 151.6430054  91.8889999
 101.5080032 151.0359955  93.1859970  98.9300003 149.6900024  90.0569992
  97.7099991 149.8560028  90.1009979  99.5650024 149.3119965  88.9260025
 100.5569992 149.2189941  88.9300003  98.8720016 148.9429932  87.6989975
  98.2379990 149.7720032  87.4189987  99.9029999 148.6940002  86.5650024
 100.6470032 147.9470062  86.9169998 100.4479980 149.6459961  86.3899994
  99.3430023 148.2019958  85.2080002  98.8949966 147.1959991  85.3550034
  98.2549973 149.1280060  84.6419983  98.6589966 150.1510010  84.4879990
  97.3850021 149.1889954  85.3310013  97.8939972 148.7409973  83.6650009
 100.4800034 148.0559998  84.1839981 101.2529984 147.3489990  84.5559998
 100.9609985 149.0399933  83.9980011 100.0869980 147.6719971  83.2190018
  97.9599991 147.7319946  87.8820038  96.7890015 147.7389984  87.4950027
  98.4710007 146.6820068  88.5619965  99.4240036 146.6979980  88.8529968
  97.7220001 145.4960022  88.9319992  97.3450012 145.0359955  88.0299988
  98.6819992 144.5200043  89.6610031  99.0670013 145.0319977  90.5690002
  99.5589981 144.3439941  89.0029984  98.0910034 143.1479950  90.0559998
  98.1190033 142.4949951  89.1569977  97.0240021 143.2290039  90.3539963
  98.8740005 142.4470062  91.1790009  99.9570007 142.4589996  90.9300003
  98.5319977 141.3990021  91.3109970  98.5910034 143.2019958  92.4459991
  97.6660004 143.5469971  92.6050034  99.4619980 143.4199982  93.4240036
  99.0920029 144.1410065  94.4599991  98.1709976 144.5310059  94.4980011
  99.7929993 144.4510040  95.1019974 100.6859970 142.9420013  93.4189987
 100.9209976 142.2550049  92.7320023 101.2269974 143.0370026  94.2549973
  96.5230026 145.7980042  89.8320007  95.4100037 145.3269958  89.5940018
  96.7109985 146.6309967  90.8779984  97.6230011 146.9759979  91.0869980
  95.6579971 147.0749969  91.7659988  95.1949997 146.1959991  92.1900024
  96.2659988 147.9149933  92.9049988  96.7630005 148.8240051  92.5029984
  97.0299988 147.3200073  93.4499969  95.4860001 148.2270050  93.6320038
  94.5530014 147.8739929  91.0830002  93.3679962 147.6159973  91.2939987
  94.9069977 148.8419952  90.2119980  95.8700027 149.0659943  90.0800018
  93.9509964 149.6040039  89.4260025  93.2580032 150.0690002  90.1110001
  94.6750031 150.7290039  88.6389999  95.5550003 150.2890015  88.1230011
  95.0589981 151.4579926  89.3840027  93.8010025 151.4570007  87.5869980
  92.8280029 151.7290039  88.0490036  93.5999985 150.7940063  86.7190018
  94.4660034 152.7290039  87.0670013  93.9069977 153.8390045  87.2880020
  95.5429993 152.6410065  86.4179993  93.1039963 148.7590027  88.4820023
  91.8779984 148.8789978  88.4169998  93.7519989 147.8269958  87.7630005
  94.7470016 147.7760010  87.8020020  93.1119995 146.8269958  86.9380035
  92.4970016 147.3309937  86.2070007  94.2429962 146.0709991  86.2030029
  95.0429993 145.8619995  86.9459991  94.6800003 146.7539978  85.4440002
  93.9069977 144.7279968  85.5350037  93.5640030 144.0189972  86.3190002
  92.8109970 144.8339996  84.4680023  93.1620026 145.4440002  83.6080017
  91.8860016 145.2929993  84.8789978  92.5559998 143.8170013  84.0999985
  95.1920013 144.1529999  84.9260025  95.9970016 144.1159973  85.6910019
  95.5380020 144.7790070  84.0759964  95.0169983 143.1190033  84.5589981
  92.1839981 145.8840027  87.7129974  91.0319977 145.6600037  87.3339996
  92.6419983 145.3630066  88.8710022  93.5839996 145.5319977  89.1490021
  91.8519974 144.5520020  89.7799988  91.4670029 143.7160034  89.2149963
  92.7570038 143.9989929  90.9140015  93.2720032 144.8569946  91.3960037
  93.5390015 143.3760071  90.4309998  92.0319977 143.1759949  92.0070038
  91.5090027 142.3070068  91.5540009  91.2770004 143.7989960  92.5319977
  93.0090027 142.6649933  93.0719986  92.9940033 143.1020050  94.2269974
  93.8840027 141.7059937  92.6890030  94.5179977 141.3399963  93.3710022
  93.8730011 141.3630066  91.7500000  90.6350021 145.2749939  90.3489990
  89.5289993 144.7369995  90.4039993  90.8050003 146.5460052  90.7519989
  91.7190018 146.9429932  90.7659988  89.7310028 147.4290009  91.1539993
  89.1869965 146.9290009  91.9410019  90.3020020 148.7350006  91.7570038
  91.0410004 149.1799927  91.0569992  90.8570023 148.4440002  92.6740036
  89.2229996 149.7929993  92.0830002  88.2969971 149.2749939  92.4110031
  88.9729996 150.3849945  91.1760025  89.6669998 150.7350006  93.1969986
  90.4769974 151.6640015  92.9390030  89.1959991 150.5559998  94.3550034
  88.6959991 147.7100067  90.0670013  87.4879990 147.6779938  90.3119965
  89.1439972 147.9360046  88.8109970  90.1240005 148.0229950  88.6549988
  88.2710037 148.0440063  87.6439972  88.9010010 148.2050018  86.7819977
  87.5749969 148.8529968  87.8130035  87.4589996 146.7980042  87.3730011
  86.2590027 146.8619995  87.1080017  88.0920029 145.6130066  87.4700012
  89.0780029 145.5839996  87.6139984  87.4089966 144.3370056  87.4219971
  86.8679962 144.2859955  86.4889984  88.4400024 143.1950073  87.4589996
  89.0429993 143.2279968  88.3919983  89.1330032 143.2790070  86.5950012
  87.9309998 142.2089996  87.4029999  86.3870010 144.1430054  88.5459976
  85.2470016 143.7519989  88.3040009  86.7490005 144.4790039  89.8030014
  87.6920013 144.7510071  89.9789963  85.8740005 144.4210052  90.9639969
  85.5250015 143.4049988  91.0729980  86.6630020 144.8320007  92.2350006
  86.9380035 145.9060059  92.1650009  87.6110001 144.2539978  92.2480011
  85.9169998 144.5610046  93.5609970  85.8369980 143.4589996  93.6819992
  84.8809967 144.9589996  93.5210037  86.6259995 145.1040039  94.8109970
  87.6940002 144.7989960  94.8000031  86.1600037 144.7059937  95.7379990
  86.4609985 146.5950012  94.8160019  85.5429993 146.9770050  94.9270020
  87.4459991 147.4799957  94.7770004  87.1600037 148.7640076  94.7949982
  86.2070007 149.0670013  94.8239975  87.9079971 149.4129944  94.6600037
  88.7200012 147.1560059  94.7429962  88.9749985 146.2019958  94.9020004
  89.3880005 147.8869934  94.8799973  84.6429977 145.3130035  90.8170013
  83.5100021 144.9140015  91.0970001  84.8420029 146.5449982  90.3109970
  85.7740021 146.8659973  90.1610031  83.7829971 147.4579926  89.9369965
  83.1760025 147.6369934  90.8119965  84.4029999 148.8049927  89.4840012
  85.1429977 148.5899963  88.6839981  84.9700012 149.2209930  90.3440018
  83.3909988 149.8520050  88.9599991  82.6650009 150.1230011  89.7559967
  82.8190002 149.4559937  88.0940018  84.1100006 151.1100006  88.4749985
  84.2529984 151.3339996  87.2689972  84.5810013 151.9519958  89.4209976
  85.0500031 152.7850037  89.1269989  84.4570007 151.7350006  90.3889999
  82.8489990 146.9100037  88.8610001  81.6289978 146.9949951  88.9840012
  83.4020004 146.2859955  87.7990036  84.3939972 146.2489929  87.7070007
  82.6399994 145.6170044  86.7559967  81.9589996 146.3459930  86.3420029
  83.5930023 145.1670074  85.6110001  84.4649963 144.6390076  86.0520020
  83.9909973 146.0939941  85.1449966  83.0009995 144.2680054  84.5000000
  83.5820007 144.4720001  83.5749969  81.9509964 144.5760040  84.3079987
  83.1129990 142.7510071  84.7829971  82.4919968 142.4629974  85.6579971
  84.1669998 142.5370026  85.0599976  82.7620010 141.8300018  83.5979996
  82.9369965 140.7700043  83.8820038  83.3980026 142.0709991  82.7200012
  81.3310013 141.9750061  83.2030029  81.1399994 142.9369965  82.8570023
  80.7070007 141.7819977  84.0120010  81.0970001 141.3079987  82.4400024
  81.7570038 144.4759979  87.2580032  80.5800018 144.3760071  86.9029999
  82.3000031 143.6119995  88.1409988  83.2699966 143.6739960  88.3619995
  81.5640030 142.5549927  88.8160019  81.1289978 141.9069977  88.0690002
  82.5250015 141.7389984  89.7210007  81.9530029 140.9989929  90.3199997
  83.0199966 142.4400024  90.4270020  83.6299973 140.9720001  88.9619980
  84.0630035 141.6309967  88.1800003  84.7730026 140.5729980  89.9069977
  84.3820038 139.9510040  90.7399979  85.2630005 141.4730072  90.3359985
  85.5370026 139.9830017  89.3570023  83.0690002 139.7400055  88.2519989
  82.2570038 140.0269928  87.5510025  82.6579971 139.0209961  88.9929962
  83.8659973 139.2250061  87.6750031  80.4179993 143.0729980  89.6839981
  79.2789993 142.6069946  89.6080017  80.6989975 144.1029968  90.5100021
  81.6370010 144.4369965  90.5699997  79.7170029 144.7669983  91.3440018
  79.2529984 144.0189972  91.9700012  80.4339981 145.7989960  92.2539978
  81.0210037 146.4880066  91.6110001  81.1630020 145.2649994  92.9020004
  79.0449982 146.2519989  94.3430023  79.1989975 145.3719940  94.7929993
  79.5250015 146.6419983  93.1100006  78.3840027 147.3150024  94.8669968
  77.9029999 147.2850037  95.8450012  78.4199982 148.3659973  94.0619965
  79.1439972 147.9420013  92.9560013  79.3509979 148.6170044  92.1350021
  78.5879974 145.4579926  90.5790024  77.4059982 145.3040009  90.8949966
  78.9359970 146.2270050  89.5270004  79.8960037 146.3339996  89.2819977
  78.0049973 147.0169983  88.7460022  77.4889984 147.6660004  89.4369965
  78.7799988 147.9340057  87.7610016  79.5360031 147.3200073  87.2269974
  79.3339996 148.6790009  88.3710022  77.9089966 148.6580048  86.7040024
  77.0169983 149.0870056  87.2080002  77.5630035 147.9369965  85.9319992
  78.6579971 149.7879944  85.9970016  79.7320023 149.5350037  85.3899994
  78.1559982 150.9470062  86.0189972  76.9010010 146.2489929  88.0270004
  75.7269974 146.6170044  88.0979996  77.2360001 145.1289978  87.3450012
  78.1880035 144.8370056  87.2900009  76.2470016 144.3020020  86.6689987
  75.7009964 144.9380035  85.9889984  76.9290009 143.1730042  85.8539963
  77.3369980 142.4140015  86.5540009  77.7919998 143.5989990  85.2979965
  75.9929962 142.4819946  84.8339996  74.9670029 142.4369965  85.2559967
  75.9290009 143.2640076  83.5130005  76.9199982 143.2550049  83.0110016
  75.6350021 144.3190002  83.6940002  75.1859970 142.8009949  82.8280029
  76.4270020 141.0359955  84.5690002  76.4260025 140.4450073  85.5100021
  77.4499969 141.0119934  84.1350021  75.7310028 140.5500031  83.8519974
  75.2259979 143.6909943  87.6340027  74.0139999 143.7429962  87.4130020
  75.7109985 143.1490021  88.7730026  76.6959991 143.1239929  88.9240036
  74.8909988 142.6260071  89.8489990  74.2360001 141.8829956  89.4160004
  75.7870026 141.8899994  90.8850021  76.7229996 142.4720001  91.0230026
  76.0839996 140.9290009  90.4120026  75.1559982 141.5690002  92.2639999
  75.6429977 140.6649933  92.6880035  74.0759964 141.3430023  92.1360016
  75.2910004 142.6920013  93.3000031  74.3069992 143.2250061  93.8219986
  76.5520020 143.0500031  93.6429977  76.6699982 143.7720032  94.3249969
  77.3320007 142.5809937  93.2289963  73.9570007 143.6529999  90.4860001
  72.7639999 143.3990021  90.6900024  74.4720001 144.8690033  90.7600021
  75.4459991 145.0420074  90.6320038  73.6880035 145.9889984  91.2360001
  73.1999969 145.6829987  92.1500015  74.6360016 147.1739960  91.5569992
  75.2549973 147.3710022  90.6549988  75.3320007 146.8470001  92.3580017
  73.9680023 148.5099945  91.9720001  73.3280029 148.8939972  91.1490021
  74.7639999 149.2630005  92.1549988  73.1370010 148.4019928  93.2490005
  71.9319992 148.7749939  93.2269974  73.6829987 147.9819946  94.3059998
  72.5800018 146.4279938  90.2750015  71.4209976 146.5829926  90.6620026
  72.8980026 146.5820007  88.9720001  73.8440018 146.4830017  88.6719971
  71.9290009 146.8809967  87.9329987  71.3870010 147.7550049  88.2610016
  72.6330032 147.2720032  86.6100006  71.8880005 147.3260040  85.7880020
  73.3779984 146.4920044  86.3460007  73.3180008 148.6470032  86.7060013
  74.0599976 148.6340027  87.5329971  72.5490036 149.4069977  86.9619980
  74.0299988 149.0690002  85.4059982  73.2929993 149.0420074  84.5749969
  74.8239975 148.3240051  85.1869965  74.6399994 150.4790039  85.5039978
  75.3619995 150.5229950  86.3470001  73.8399963 151.2279968  85.6859970
  75.3539963 150.8540039  84.2559967  74.7009964 150.8809967  83.4469986
  76.1190033 150.1799927  84.0500031  75.7819977 151.7960052  84.3619995
  70.8539963 145.8200073  87.6900024  69.6719971 146.1349945  87.5309982
  71.2369995 144.5290070  87.6679993  72.2040024 144.2960052  87.7369995
  70.3369980 143.3990021  87.5260010  69.7809982 143.5429993  86.6119995
  71.1699982 142.0970001  87.4020004  71.8140030 142.0050049  88.3020020
  71.8450012 142.2019958  86.5260010  70.3679962 140.7850037  87.2409973
  69.6969986 140.6609955  88.1169968  69.5009995 140.7879944  85.9710007
  70.1380005 140.9149933  85.0690002  68.7570038 141.6130066  86.0009995
  68.9520035 139.8260040  85.8779984  71.3160019 139.5789948  87.2369995
  71.9390030 139.5599976  88.1559982  71.9889984 139.6210022  86.3539963
  70.7350006 138.6329956  87.1880035  69.3040009 143.2440033  88.6470032
  68.1340027 142.9290009  88.4110031  69.7229996 143.4579926  89.9120026
  70.6640015 143.7519989  90.0630035  68.9520035 143.0910034  91.0979996
  68.7929993 142.0260010  91.0120010  69.7350006 143.2870026  92.4309998
  69.0729980 143.0650024  93.2949982  70.0889969 144.3350067  92.5309982
  70.8550034 142.4010010  92.5100021  71.5130005 142.7310028  91.8929977
  67.5360031 143.6609955  91.2509995  66.6579971 142.8670044  91.6039963
  67.1819992 144.9290009  90.9929962  68.1179962 146.0540009  90.9169998
  68.3700027 146.2339935  89.8499985  69.0500031 145.8809967  91.4960022
  65.8079987 145.3959961  91.1760025  65.4589996 145.0740051  92.1460037
  65.9029999 146.9299927  91.0699997  65.1549988 147.4329987  91.7200012
  65.7630005 147.2790070  90.0250015  67.3399963 147.2369995  91.4929962
  67.7040024 148.2129974  91.1090012  67.4160004 147.2259979  92.6019974
  64.8710022 144.8300018  90.1250000  63.7309990 144.4929962  90.4440002
  65.3290024 144.7279968  88.8610001  66.2519989 145.0410004  88.6510010
  64.5950012 144.1080017  87.7730026  63.6459999 144.6170044  87.6839981
  65.3949966 144.2830048  86.4580002  66.4160004 143.8670044  86.5979996
  65.5080032 145.3739929  86.2760010  64.7929993 143.6450043  85.1859970
  64.7760010 142.5410004  85.3099976  63.3540001 144.1159973  84.9209976
  63.3160019 145.2250061  84.8649979  62.6720009 143.7790070  85.7300034
  62.9850006 143.6990051  83.9589996  65.6900024 143.9660034  83.9810028
  66.7080002 143.5480042  84.1309967  65.7760010 145.0659943  83.8519974
  65.2639999 143.5370026  83.0479965  64.2880020 142.6369934  88.0360031
  63.1570015 142.1750031  87.8750000  65.2929993 141.8789978  88.5339966
  66.2009964 142.2799988  88.6179962  65.1259995 140.4940033  88.9649963
  66.0869980 140.1470032  89.3140030  64.7539978 139.9230042  88.1279984
  64.1480026 140.3179932  90.1039963  63.2779999 139.4479980  90.0650024
  64.2450027 141.1660004  91.1470032  64.9840012 141.8339996  91.1800003
  63.3030014 141.1979980  92.2539978  63.2820015 140.2089996  92.6890030
  63.7869987 142.1860046  93.3470001  64.0159988 143.1600037  92.8629990
  64.7409973 141.7899933  93.7580032  62.7799988 142.4329987  94.4990005
  62.4510002 141.4539948  94.9079971  61.8820000 142.9720001  94.1289978
  63.3870010 143.2579956  95.6309967  63.7070007 144.4579926  95.4130020
  63.5330009 142.7220001  96.7639999  61.8619995 141.5119934  91.8529968
  60.9160004 140.8419952  92.2779999  61.6619987 142.5209961  90.9779968
  62.4300003 143.0820007  90.6800003  60.3639984 142.8719940  90.4359970
  59.7089996 143.1080017  91.2620010  60.5050011 144.1239929  89.5309982
  61.2639999 143.9040070  88.7490005  60.9169998 144.9510040  90.1490021
  59.2130013 144.6060028  88.8229980  58.7929993 143.8009949  88.1829987
  59.4640007 145.4629974  88.1620026  58.1450005 145.0829926  89.8059998
  58.4220009 146.0220032  90.6019974  57.0009995 144.5529938  89.7750015
  59.7050018 141.7380066  89.6539993  58.5579987 141.3630066  89.9079971
  60.4550018 141.1000061  88.7289963  61.3759995 141.4210052  88.5230026
  60.0029984 139.9340057  87.9950027  59.0519981 140.1990051  87.5559998
  60.9599991 139.5709991  86.8339996  60.6689987 138.5930023  86.3939972
  61.9879990 139.4579926  87.2379990  60.9770012 140.6239929  85.7009964
  61.6800003 140.2680054  84.9179993  61.4080009 141.5650024  86.1050034
  59.3600006 141.0019989  84.9400024  59.0379982 139.3639984  84.2300034
  58.8829994 138.6000061  85.0220032  59.8829994 139.0310059  83.5899963
  58.1230011 139.3829956  83.6009979  59.6940002 138.7129974  88.8529968
  58.6949997 138.0260010  88.6389999  60.5279999 138.4320068  89.8759995
  61.3650017 138.9600067  89.9980011  60.2970009 137.3809967  90.8499985
  60.2420006 136.4409943  90.3209991  61.4970016 137.3399963  91.8330002
  61.6139984 138.3500061  92.2829971  62.4129982 137.1510010  91.2330017
  61.4109993 136.3099976  92.9810028  61.4099998 135.2810059  92.5599976
  60.4539986 136.4389954  93.5309982  62.5320015 136.4470062  94.0270004
  62.4020004 135.6999969  94.8389969  62.5120010 137.4730072  94.4530029
  63.8380013 136.1990051  93.3359985  63.8400002 135.7599945  92.4380035
  65.0270004 136.5090027  93.8399963  66.1119995 136.2729950  93.1289978
  66.0329971 135.8600006  92.2220001  67.0100021 136.4960022  93.5080032
  65.1760025 137.0429993  95.0339966  66.0940018 137.2350006  95.3799973
  64.3720016 137.1759949  95.6149979  58.9850006 137.5350037  91.6240005
  58.2019997 136.5910034  91.7480011  58.6819992 138.7550049  92.1200027
  59.3359985 139.5050049  92.0469971  57.4020004 139.0700073  92.7259979
  57.2360001 138.3249969  93.4899979  57.4519997 140.4669952  93.4010010
  57.4949989 141.2599945  92.6240005  58.3750000 140.5379944  94.0159988
  56.2649994 140.7290039  94.3229980  56.0079994 141.9250031  94.6299973
  55.6380005 139.7599945  94.8330002  56.2290001 138.9499969  91.7399979
  55.1759987 138.4029999  92.0619965  56.3909988 139.4239960  90.4860001
  57.2260017 139.9109955  90.2429962  55.3800011 139.3070068  89.4459991
  54.4869995 139.7890015  89.8150024  55.8569984 140.0269928  88.1549988
  56.2680016 139.3179932  87.4049988  56.6899986 140.7070007  88.4319992
  54.7599983 140.9089966  87.5299988  54.4109993 141.6219940  88.3059998
  53.8979988 140.2669983  87.2460022  55.2410011 141.7010040  86.3069992
  55.5550003 141.0039978  85.5000000  56.0859985 142.3670044  86.5810013
  54.0789986 142.5299988  85.8529968  53.2809982 142.6159973  86.4489975
  54.0519981 143.2649994  84.7480011  53.0120010 144.0429993  84.5230026
  52.2760010 144.0910034  85.1989975  53.0019989 144.6499939  83.7279968
  55.0279999 143.2610016  83.8659973  55.8250008 142.6779938  84.0260010
  54.9449997 143.8229980  83.0429993  55.0180016 137.8520050  89.1240005
  53.8429985 137.4900055  89.0270004  56.0320015 136.9720001  89.0000000
  56.9739990 137.2960052  89.0240021  55.8639984 135.5429993  88.8539963
  55.2589989 135.3639984  87.9779968  57.2500000 134.9049988  88.6579971
  57.9010010 135.0839996  89.5390015  57.7459984 135.3390045  87.7639999
  57.1539993 133.8090057  88.5029984  55.1590004 134.8750000  90.0400009
  54.2319984 134.0780029  89.8720016  55.5569992 135.2350006  91.2799988
  56.3359985 135.8470001  91.3889999  54.9140015 134.8040009  92.5080032
  54.9430008 133.7250061  92.5449982  55.6990013 135.3869934  93.7139969
  55.7109985 136.4920044  93.5999985  56.7579994 135.0570068  93.6460037
  55.1520004 135.0319977  95.1149979  55.6800003 134.1210022  95.4690018
  54.0750008 134.7630005  95.0690002  55.3380013 136.1439972  96.1660004
  56.4029999 136.4579926  96.1999969  55.0480003 135.8009949  97.1819992
  54.5110016 137.3309937  95.7689972  54.9580002 138.1369934  95.3809967
  53.1969986 137.4440002  95.9100037  52.6320000 138.5630035  95.5039978
  53.2340012 139.2940063  95.1839981  51.6669998 138.7290039  95.7080002
  52.4399986 136.5130005  96.4469986  52.8680000 135.6739960  96.7829971
  51.4440002 136.6049957  96.4540024  53.4440002 135.2270050  92.5979996
  52.5600014 134.4270020  92.9130020  53.1479988 136.4980011  92.2600021
  53.8909988 137.1309967  92.0530014  51.8250008 137.0769958  92.2190018
  51.3969994 136.9799957  93.2060013  51.9169998 138.5709991  91.8529968
  52.3549995 138.7059937  90.8399963  52.5680008 139.1000061  92.5810013
  50.9140015 139.0480042  91.8740005  50.8829994 136.3760071  91.2500000
  49.7130013 136.1450043  91.5559998  51.3720016 135.9909973  90.0550003
  52.3009987 136.2400055  89.7949982  50.6010017 135.1959991  89.1169968
  49.6920013 135.7380066  88.9039993  51.3610001 135.0209961  87.7829971
  52.3709984 134.6069946  87.9889984  51.4980011 136.0249939  87.3270035
  49.8680000 134.5390015  85.7689972  49.6780014 135.4810028  85.4909973
  50.6759987 134.1119995  86.8010025  49.5219994 133.4429932  85.0550003
  48.8889999 133.5010071  84.1699982  50.0600014 132.3399963  85.5459976
  50.7970009 132.7640076  86.6419983  51.3680000 132.0579987  87.2330017
  50.1660004 133.8280029  89.6480026  49.0029984 133.4510040  89.5220032
  51.0660019 133.0590057  90.2990036  52.0159988 133.3520050  90.3789978
  50.7140007 131.8040009  90.9599991  50.1980019 131.1950073  90.2330017
  51.9459991 131.0149994  91.3960037  52.5970001 131.6479950  92.0360031
  51.5499992 129.7500000  92.1880035  50.8079987 129.1510010  91.6190033
  51.1199989 130.0059967  93.1800003  52.4440002 129.1130066  92.3619995
  52.7220001 130.6130066  90.1279984  53.1310005 131.5030060  89.6019974
  52.0649986 130.0540009  89.4280014  53.5730019 129.9519958  90.3980026
  49.7280006 131.9869995  92.1159973  48.7560005 131.2420044  92.2679977
  49.9339981 133.0350037  92.9390030  50.7490005 133.5970001  92.8249969
  49.0519981 133.4369965  94.0149994  48.9690018 132.6089935  94.7030029
  49.7709999 134.6340027  94.7099991  49.8699989 135.4629974  93.9769974
  50.7960014 134.3090057  94.9879990  49.1160011 135.2019958  95.9599991
  49.6329994 136.2440033  96.4550018  48.1399994 134.6170044  96.4940033
  47.6259995 133.7630005  93.5149994  46.6209984 133.2649994  94.0329971
  47.5149994 134.5379944  92.4140015  48.3269997 134.9739990  92.0339966
  46.2840004 134.7570038  91.6819992  45.5569992 135.1529999  92.3750000
  46.5279999 135.7960052  90.5709991  47.2750015 135.4250031  89.8359985
  46.9189987 136.7380066  91.0120010  45.5849991 136.0299988  90.0329971
  45.6720009 133.4920044  91.0699997  44.4690018 133.2539978  91.1740036
  46.4900017 132.6239929  90.4420013  47.4529991 132.8520050  90.3239975
  46.0680008 131.3739929  89.8330002  45.3230019 131.6130066  89.0889969
  47.2659988 130.6889954  89.1259995  48.0779991 130.5460052  89.8710022
  47.6539993 131.3829956  88.3489990  46.9869995 129.3200073  88.4609985
  46.6329994 128.6100006  89.2389984  45.9059982 129.4089966  87.3710022
  46.2150002 130.1210022  86.5759964  44.9389992 129.7469940  87.7990036
  45.7500000 128.4120026  86.9059982  48.2840004 128.7350006  87.8789978
  49.0519981 128.6230011  88.6740036  48.6889992 129.4010010  87.0869980
  48.0919991 127.7360001  87.4329987  45.4049988 130.4129944  90.8099976
  44.3479996 129.8520050  90.5250015  45.9700012 130.2510071  92.0250015
  46.8499985 130.6790009  92.2170029  45.3619995 129.4790039  93.0950012
  45.1969986 128.4819946  92.7139969  46.3279991 129.3760071  94.3030014
  46.5559998 130.3979950  94.6750031  47.2809982 128.9429932  93.9319992
  45.8100014 128.5099945  95.4739990  45.5139999 127.5149994  95.0780029
  44.9029999 128.9810028  95.9089966  46.8499985 128.3200073  96.5879974
  47.1300011 129.3079987  97.0120010  47.7779999 127.8389969  96.2109985
  46.2169991 127.5029984  97.6780014  45.7210007 127.9779968  98.4049988
  46.3400002 126.1910019  97.8310013  45.8479996 125.6080017  98.9069977
  45.3899994 126.1520004  99.6100006  45.9620018 124.6190033  98.9980011
  46.9309998 125.3980026  96.9660034  46.9500008 124.4229965  97.1900024
  47.2220001 125.7630005  96.0820007  43.9889984 130.0119934  93.5250015
  43.0400009 129.2550049  93.7360001  43.8370018 131.3520050  93.6220016
  44.6259995 131.9420013  93.4690018  42.5400009 132.0039978  93.8300018
  42.0960007 131.5610046  94.7089996  42.6640015 133.5090027  94.0950012
  43.2989998 133.9819946  93.3150024  43.2490005 133.7380066  95.3769989
  44.1500015 133.4080048  95.3470001  41.3009987 134.2259979  94.1139984
  40.6100006 133.7310028  94.8300018  40.8310013 134.2389984  93.1080017
  41.4300003 135.2839966  94.4309998  41.5390015 131.7539978  92.7040024
  40.3829994 131.4069977  92.9499969  41.9659996 131.8769989  91.4260025
  42.8899994 132.2079926  91.2509995  41.1520004 131.5729980  90.2519989
  40.2599983 132.1790009  90.3119965  41.8919983 131.9060059  88.9270020
  41.2610016 131.6159973  88.0599976  42.8339996 131.3200073  88.8700027
  41.2960014 134.3809967  88.7549973  40.3129997 134.2910004  88.9169998
  42.2280006 133.3639984  88.7450027  41.9539986 135.5319977  88.4639969
  41.4529991 136.4980011  88.4059982  43.2439995 135.3240051  88.2590027
  43.4160004 133.9570007  88.4369965  44.3909988 133.5059967  88.3030014
  40.6839981 130.1190033  90.1669998  39.5429993 129.8300018  89.8059998
  41.5800018 129.1750031  90.4960022  42.5110016 129.4510040  90.7239990
  41.3709984 127.7429962  90.5019989  41.1090012 127.4339981  89.5009995
  42.7350006 127.1129990  90.8889999  43.1549988 127.7099991  91.7269974
  43.4269981 127.2399979  90.0289993  42.7680016 125.6419983  91.3460007
  42.1500015 125.5270004  92.2620010  42.2190018 124.6959991  90.2740021
  42.8250008 124.7949982  89.3479996  41.1609993 124.9209976  90.0220032
  42.2750015 123.6439972  90.6259995  44.2099991 125.2600021  91.7210007
  44.5989990 125.9339981  92.5139999  44.8740005 125.3359985  90.8339996
  44.2509995 124.2160034  92.0979996  40.2620010 127.2249985  91.4199982
  39.4410019 126.3899994  91.0279999  40.2000008 127.7229996  92.6719971
  40.8380013 128.4360046  92.9520035  39.3880005 127.1389999  93.7229996
  39.7400017 126.1230011  93.8249969  39.6819992 127.8330002  95.0699997
  39.3740005 128.8999939  95.0599976  40.7729988 127.7939987  95.2799988
  39.1539993 127.3180008  95.9010010  37.8720016 127.0019989  93.4710007
  37.3530006 125.9290009  93.7939987  37.0979996 127.9349976  92.8929977
  37.4640007 129.3459930  92.7340012  37.8380013 129.4920044  91.6989975
  38.2360001 129.6840057  93.4580002  35.6580009 127.7409973  92.7340012
  35.2500000 127.4039993  93.6760025  35.1250000 129.1320038  92.3389969
  34.1010017 129.3070068  92.7320023  35.1170006 129.2689972  91.2369995
  36.1510010 130.0980072  92.9369965  36.1479988 131.0919952  92.4410019
  35.9609985 130.2259979  94.0240021  35.3240013 126.6999969  91.6780014
  34.4000015 125.9089966  91.8789978  36.0460014 126.6900024  90.5370026
  36.7669983 127.3649979  90.3990021  35.8750000 125.6949997  89.4889984
  34.8339996 125.6900024  89.1989975  36.7620010 125.9980011  88.2450027
  36.5979996 125.2269974  87.4629974  37.8310013 125.9779968  88.5449982
  36.4830017 127.3369980  87.5979996  37.5000000 127.9459991  86.8389969
  38.4570007 127.4550018  86.7440033  37.2869987 129.1759949  86.2009964
  38.0810013 129.6219940  85.6200027  36.0470009 129.8159943  86.3140030
  35.8129997 131.0599976  85.6800003  36.6160011 131.3350067  85.2310028
  35.2330017 127.9840012  87.6819992  34.4189987 127.5390015  88.2350006
  35.0209999 129.2180023  87.0520020  34.0589981 129.7039948  87.1299973
  36.1749992 124.2809982  89.9729996  35.4049988 123.3470001  89.7409973
  37.2859993 124.1039963  90.7229996  37.9049988 124.8669968  90.8909988
  37.6279984 122.8359985  91.3369980  37.6930008 122.0999985  90.5490036
  38.9889984 122.9189987  92.0630035  38.9280014 123.7020035  92.8479996
  39.7639999 123.2429962  91.3369980  39.4539986 121.5970001  92.7170029
  38.6489983 121.1829987  93.3610001  39.8100014 120.5339966  91.6660004
  40.6269989 120.9000015  91.0080032  38.9269981 120.2910004  91.0360031
  40.1510010 119.5999985  92.1620026  40.6399994 121.8619995  93.6449966
  40.3499985 122.5479965  94.4700012  41.4690018 122.3320007  93.0739975
  41.0009995 120.9089966  94.0859985  36.5839996 122.3349991  92.3270035
  36.2120018 121.1610031  92.3119965  36.0620003 123.2229996  93.2009964
  36.3950005 124.1620026  93.2220001  35.0410004 122.8929977  94.1729965
  35.4329987 122.0989990  94.7910004  34.7729988 124.1529999  95.0429993
  34.3359985 124.9570007  94.4130020  35.7420006 124.5220032  95.4410019
  33.8590012 123.9020004  96.2340012  33.2200012 124.8789978  96.7099991
  33.8510017 122.7689972  96.7819977  33.7550011 122.3619995  93.5159988
  33.1949997 121.3399963  93.9229965  33.3019981 123.0189972  92.4260025
  33.7599983 123.8489990  92.1190033  32.1839981 122.5719986  91.6220016
  31.3309994 122.4929962  92.2799988  31.9139996 123.6569977  90.5400009
  32.7570000 123.6770020  89.8170013  31.8640003 124.6520004  91.0319977
  30.6140003 123.4599991  89.7720032  29.6790009 122.7860031  90.2770004
  30.4740009 124.0839996  88.6829987  32.4049988 121.1780014  90.9970016
  31.5680008 120.2789993  91.1230011  33.5820007 120.9359970  90.3720016
  34.2480011 121.6679993  90.2500000  33.9519997 119.6210022  89.8720016
  33.1529999 119.2949982  89.2220001  35.2859993 119.6439972  89.0709991
  35.5820007 118.6110001  88.7880020  36.0919991 120.0839996  89.6959991
  35.1749992 120.4160004  87.7789993  36.1440010 121.3759995  87.4329987
  36.9519997 121.5879974  88.1179962  36.0670013 122.0709991  86.2190018
  36.8120003 122.8140030  85.9720001  35.0250015 121.7979965  85.3239975
  34.9620018 122.3339996  84.3880005  34.1500015 120.1350021  86.8570023
  33.4169998 119.3730011  87.0800018  34.0699997 120.8259964  85.6409988
  33.2719994 120.6019974  84.9489975  34.0540009 118.5329971  90.9420013
  33.5139999 117.4390030  90.7850037  34.7089996 118.8209991  92.0839996
  35.1539993 119.7070007  92.1849976  34.8540001 117.9049988  93.1979980
  35.3300018 117.0110016  92.8229980  35.7470016 118.5550003  94.2880020
  35.2620010 119.4869995  94.6480026  36.6969986 118.8619995  93.8000031
  36.0789986 117.6579971  95.5059967  35.1529999 117.4440002  96.0820007
  36.7820015 118.1869965  96.1849976  36.6969986 116.3150024  95.1070023
  36.1370010 115.2389984  95.3290024  37.9109993 116.3700027  94.5100021
  38.3610001 115.5110016  94.2630005  38.3549995 117.2529984  94.3600006
  33.5190010 117.4759979  93.8050003  33.2649994 116.2919998  94.0419998
  32.5999985 118.4410019  94.0149994  32.8330002 119.3960037  93.8499985
  31.2390003 118.1900024  94.4410019  31.2779999 117.6490021  95.3759995
  30.5209999 119.5410004  94.6829987  30.6229992 120.1689987  93.7730026
  31.0599995 120.0660019  95.5000000  29.0279999 119.4509964  95.0469971
  28.9109993 118.7689972  95.9160004  28.4610004 119.0230026  94.1930008
  28.4599991 120.8379974  95.4089966  28.5720005 121.5210037  94.5400009
  29.0879993 121.2549973  96.2259979  27.0030003 120.8519974  95.9059982
  26.7339993 121.8750000  96.2440033  26.8799992 120.1520004  96.7610016
  26.0529995 120.4589996  94.8330002  26.2000008 119.4710007  94.5449982
  26.1679993 121.0709991  94.0000000  25.0739994 120.5540009  95.1709976
  30.4419994 117.3239975  93.4700012  29.7679996 116.3710022  93.8649979
  30.5470009 117.6129990  92.1569977  31.0739994 118.4069977  91.8629990
  29.9379997 116.8339996  91.0979996  28.8740005 116.8020020  91.2819977
  30.1849995 117.5429993  89.7440033  31.2779999 117.6389999  89.5709991
  29.7789993 118.5739975  89.8280029  29.5480003 116.8659973  88.5199966
  28.4570007 116.7720032  88.7080002  29.9659996 115.8450012  88.3909988
  29.7810001 117.6959991  87.2419968  30.8570004 117.6549988  86.9660034
  29.5520000 118.7570038  87.4789963  28.8999996 117.3089981  86.0419998
  29.1000004 117.9919968  85.1890030  27.8269997 117.3889999  86.3170013
  29.1679993 115.9169998  85.5989990  28.9759998 115.2379990  86.3629990
  30.1620007 115.7919998  85.3209991  28.5639992 115.6740036  84.7880020
  30.4200001 115.3860016  91.0370026  29.6200008 114.4520035  90.9560013
  31.7490005 115.1579971  91.1360016  32.3839989 115.9260025  91.1460037
  32.3440018 113.8330002  91.2089996  32.0299988 113.2809982  90.3349991
  33.8979988 113.9120026  91.2399979  34.3230019 112.8889999  91.3239975
  34.1940002 114.4720001  92.1529999  34.5480003 114.5790024  90.0670013
  34.0719986 114.6809998  88.7829971  33.1199989 114.2910004  88.4540024
  34.9809990 115.3690033  88.0130005  34.9300003 115.5510025  87.0550003
  36.0540009 115.7239990  88.7730026  35.8260002 115.2419968  90.0830002
  36.7849998 115.4660034  91.0729980  36.6389999 115.1060028  92.0810013
  37.9379997 116.1819992  90.7389984  38.6839981 116.3750000  91.4950027
  37.2070007 116.4169998  88.4359970  37.3740005 116.7809982  87.4339981
  38.1459999 116.6500015  89.4440002  39.0480003 117.1979980  89.2170029
  31.8840008 113.0260010  92.4179993  31.5189991 111.8550034  92.3030014
  31.8519993 113.6559982  93.6110001  32.1920013 114.5910034  93.6859970
  31.3430004 113.0559998  94.8290024  31.9039993 112.1510010  95.0110016
  31.5769997 114.0270004  96.0159988  31.1840000 115.0260010  95.7310028
  32.6759987 114.1350021  96.1429977  30.9379997 113.5960007  97.3580017
  31.2810001 112.5719986  97.6210022  29.8290005 113.5830002  97.2949982
  31.3439999 114.5279999  98.5029984  32.0919991 114.1559982  99.4120026
  30.8320007 115.7809982  98.4729996  31.0769997 116.4120026  99.2089996
  30.2049999 116.0479965  97.7409973  29.8750000 112.6460037  94.7529984
  29.4979992 111.5279999  95.1149979  29.0139999 113.5410004  94.2259979
  29.3330002 114.4499969  93.9690018  27.6119995 113.2639999  93.9840012
  27.1730003 112.9520035  94.9199982  26.9020004 114.5650024  93.5289993
  27.4540005 114.9860001  92.6610031  26.9909992 115.2979965  94.3590012
  25.4130001 114.4000015  93.1409988  24.8810005 113.8740005  93.9629974
  25.3080006 113.7919998  92.2170029  24.7369995 115.7480011  92.9039993
  23.8279991 116.1220016  93.6949997  25.0939999 116.4489975  91.9189987
  27.3579998 112.1289978  92.9909973  26.5849991 111.2060013  93.2559967
  28.0660000 112.1360016  91.8410034  28.6679993 112.9020004  91.6289978
  28.0030003 111.0839996  90.8420029  26.9689999 110.9800034  90.5469971
  28.8330002 111.4779968  89.5950012  29.8950005 111.6039963  89.8970032
  28.4810009 112.4710007  89.2440033  28.7670002 110.4769974  88.4140015
  29.1469994 109.4810028  88.7259979  29.4209995 110.8440018  87.5940018
  27.3540001 110.3249969  87.8470001  26.7350006 111.3489990  87.4449997
  26.8509998 109.1699982  87.7649994  28.4549999 109.7180023  91.3570023
  27.8059998 108.6949997  91.1299973  29.5720005 109.6709976  92.1179962
  30.1079998 110.4970016  92.2720032  30.0839996 108.4520035  92.7149963
  30.2479992 107.7519989  91.9089966  31.4500008 108.7060013  93.4049988
  31.3290005 109.5400009  94.1299973  32.1720009 109.0459976  92.6330032
  32.0390015 107.4929962  94.1549988  31.3700008 107.2200012  95.0000000
  33.0040016 107.8020020  94.6100006  32.3139992 106.0429993  93.0889969
  32.7039986 104.9189987  94.4589996  31.8430004 104.8259964  95.1559982
  33.5779991 105.2829971  95.0390015  32.9449997 103.9020004  94.0810013
  29.1180000 107.7630005  93.6740036  28.9279995 106.5469971  93.6230011
  28.4360008 108.5289993  94.5510025  28.6110001 109.5090027  94.6039963
  27.4039993 107.9990005  95.4260025  27.8519993 107.2070007  96.0080032
  26.9239998 109.0879974  96.4209976  26.7000008 110.0199966  95.8580017
  27.7779999 109.3079987  97.0960007  25.6760006 108.7040024  97.2539978
  25.7830009 107.6539993  97.5999985  24.7549992 108.7679977  96.6350021
  25.5030003 109.5989990  98.4779968  25.1809998 110.8069992  98.3150024
  25.6760006 109.1009979  99.6250000  26.2240009 107.3539963  94.6959991
  25.7840004 106.2500000  95.0289993  25.7199993 108.0059967  93.6269989
  26.0599995 108.9120026  93.3880005  24.7339993 107.4329987  92.7269974
  23.8920002 107.1179962  93.3259964  24.2450008 108.4800034  91.6930008
  23.5240002 108.0090027  90.9919968  25.1159992 108.8290024  91.0979996
  23.5580006 109.7220001  92.3079987  24.2479992 110.1780014  93.0500031
  23.2919998 110.7799988  91.2269974  22.5960007 110.3820038  90.4570007
  24.2420006 111.0709991  90.7289963  22.8390007 111.6880035  91.6770020
  22.2549992 109.3639984  93.0390015  22.4510002 108.6729965  93.8860016
  21.5389996 108.8789978  92.3410034  21.7800007 110.2829971  93.4459991
  25.2189999 106.1770020  91.9970016  24.5109997 105.1719971  91.9290009
  26.4610004 106.1790009  91.4690018  27.0049992 107.0139999  91.4840012
  27.0709991 105.0199966  90.8399963  26.4069996 104.7030029  90.0490036
  28.4410000 105.4069977  90.2050018  29.1359997 105.7750015  90.9899979
  28.2919998 106.2239990  89.4670029  29.0690002 104.2300034  89.4990005
  28.5769997 103.8310013  88.2460022  27.7849998 104.3960037  87.7770004
  29.0860004 102.6900024  87.6129990  28.7070007 102.3949966  86.6460037
  30.0919991 101.9339981  88.2279968  30.5909996 100.7809982  87.5749969
  31.2950001 100.4089966  88.1110001  30.1089993 103.4909973  90.0920029
  30.4939995 103.7890015  91.0569992  30.6180000 102.3470001  89.4609985
  31.4080009 101.7819977  89.9339981  27.2159996 103.8199997  91.7860031
  26.8740005 102.6869965  91.4459991  27.6760006 104.0640030  93.0289993
  27.9769993 104.9850006  93.2639999  27.8180008 103.0699997  94.0739975
  28.4990005 102.3099976  93.7220001  28.4139996 103.7580032  95.3270035
  27.7329998 104.5790024  95.6389999  29.3710003 104.2369995  95.0270004
  28.6889992 102.8300018  96.5289993  29.4419994 102.0759964  96.2160034
  27.7740002 102.2740021  96.8219986  29.2430000 103.5749969  97.7549973
  30.1060009 104.2020035  97.4469986  29.5580006 102.8590012  98.5439987
  28.1240005 104.4209976  98.2870026  27.1819992 104.1230011  98.1350021
  28.2719994 105.5169983  99.0210037  27.1940002 106.1419983  99.4520035
  26.2870007 105.7819977  99.2360001  27.2779999 107.0090027  99.9440002
  29.4449997 106.0110016  99.3489990  29.4920006 106.8000031  99.9609985
  30.2719994 105.5009995  99.1110001  26.5000000 102.3789978  94.4189987
  26.4279995 101.1559982  94.5569992  25.4039993 103.1620026  94.5090027
  25.5009995 104.1520004  94.4410019  24.0510006 102.6539993  94.6289978
  24.0160007 102.0250015  95.5070038  23.0739994 103.8410034  94.8470001
  23.2509995 104.5889969  94.0449982  23.3530006 104.3239975  95.8079987
  21.5699997 103.4759979  94.8479996  21.3560009 102.7200012  95.6340027
  21.2679996 103.0510025  93.8669968  20.6870003 104.7040024  95.0899963
  19.9379997 105.1480026  94.2139969  20.7639999 105.2750015  96.3140030
  20.1980000 106.0780029  96.5019989  21.3700008 104.8889999  97.0090027
  23.5979996 101.7750015  93.4580002  23.0289993 100.7009964  93.6539993
  23.8759995 102.1959991  92.2050018  24.3059998 103.0849991  92.0699997
  23.6030006 101.4319992  90.9970016  22.5590000 101.1610031  91.0419998
  23.8080006 102.2929993  89.7210007  23.7290001 101.6520004  88.8170013
  24.8339996 102.7180023  89.7450027  22.7859993 103.4410019  89.5609970
  23.1299992 104.0910034  88.7289963  22.7859993 104.0579987  90.4850006
  21.3479996 102.9570007  89.2809982  21.0610008 102.2190018  90.0599976
  21.3190002 102.4209976  88.3079987  20.2670002 104.0559998  89.3160019
  20.2989998 104.5920029  90.2880020  19.2619991 103.5950012  89.1989975
  20.4449997 105.0490036  88.2239990  20.4319992 104.5810013  87.2949982
  21.3419991 105.5670013  88.3280029  19.6709995 105.7429962  88.2450027
  24.3330002 100.0899963  90.8649979  23.7520008  99.1039963  90.4100037
  25.6200008 100.0139999  91.2649994  26.0890007 100.8470001  91.5490036
  26.4290009  98.7949982  91.2509995  26.4589996  98.4349976  90.2340012
  27.8700008  99.0899963  91.6859970  27.8519993  99.7320023  92.5920029
  28.6830006  97.8150024  92.0090027  28.6410007  97.1019974  91.1579971
  28.3110008  97.3069992  92.9250031  29.7479992  98.0810013  92.1849976
  28.5669994  99.8519974  90.5500031  28.0279999 100.7880020  90.2910004
  28.6219997  99.2200012  89.6370010  29.6030006 100.1179962  90.8499985
  25.8659992  97.6439972  92.0839996  25.8640003  96.4850006  91.6589966
  25.3610001  97.9420013  93.2990036  25.3290005  98.8929977  93.5979996
  24.9629993  96.9420013  94.2730026  25.8460007  96.3430023  94.4410019
  24.6620007  97.5999985  95.6480026  24.0249996  98.4960022  95.4899979
  25.6299992  97.9710007  96.0500031  23.9669991  96.6829987  96.6839981
  24.4939995  95.7070007  96.7419968  22.9179993  96.4909973  96.3740005
  23.9650002  97.2939987  98.0830002  25.0620003  97.4219971  98.6930008
  22.8670006  97.6350021  98.6009979  23.9099998  95.9049988  93.8450012
  24.1439991  94.7180023  94.0989990  22.8050003  96.2099991  93.1529999
  22.1560001  97.5240021  93.2139969  22.5079994  98.1340027  92.3550034
  22.3630009  98.0609970  94.1640015  21.8630009  95.1790009  92.7289963
  21.6250000  94.5630035  93.5830002  20.6429996  95.9670029  92.2259979
  19.7010002  95.3880005  92.3399963  20.7619991  96.2620010  91.1620026
  20.6620007  97.2289963  93.0869980  20.0990009  98.0719986  92.6309967
  20.2420006  97.0049973  94.0910034  22.4190006  94.2730026  91.6429977
  22.1410007  93.0739975  91.6729965  23.1949997  94.8069992  90.6740036
  23.3829994  95.7860031  90.6729965  23.8640003  94.0019989  89.6610031
  23.1089993  93.4290009  89.1419983  24.6110001  94.9160004  88.6520004
  25.3610001  95.5230026  89.2020035  23.8799992  95.6269989  88.2119980
  25.3330002  94.1910019  87.4909973  26.0660000  93.4729996  87.9160004
  24.3560009  93.4049988  86.6029968  23.6140003  94.0930023  86.1439972
  23.8129997  92.6380005  87.1959991  24.9039993  92.8899994  85.7860031
  26.1240005  95.1930008  86.6370010  26.8630009  95.7389984  87.2610016
  25.4340000  95.9339981  86.1780014  26.6690006  94.6660004  85.8249969
  24.8509998  93.0090027  90.2699966  24.8570004  91.8160019  89.9570007
  25.6749992  93.4909973  91.2229996  25.6539993  94.4649963  91.4339981
  26.6019993  92.6910019  91.9950027  27.2570000  92.1849976  91.3020020
  27.4519997  93.6399994  92.8759995  26.7660007  94.2829971  93.4690018
  28.0130005  94.3140030  92.1940002  28.4510002  92.9530029  93.8320007
  29.0680008  92.2460022  93.2379990  27.9150009  92.3560028  94.5999985
  29.4050007  93.9400024  94.5210037  29.9120007  94.5550003  93.7470016
  30.1639996  93.4010010  95.1279984  28.5739994  94.7959976  95.4319992
  27.7609997  94.3970032  95.8560028  28.8959999  96.0199966  95.8349991
  28.1170006  96.6399994  96.6989975  27.3379993  96.1630020  97.1060028
  28.3869991  97.5350037  97.0540009  29.9729996  96.6500015  95.4169998
  30.6030006  96.1819992  94.7969971  30.1739998  97.5680008  95.7600021
  25.9410000  91.6039963  92.8399963  26.3579998  90.4440002  92.8430023
  24.8460007  91.9469986  93.5520020  24.5470009  92.8970032  93.5849991
  24.0370007  91.0039978  94.2949982  24.6819992  90.4990005  94.9990005
  22.9489994  91.7710037  95.0709991  22.2689991  92.3069992  94.3750000
  23.4209995  92.5240021  95.7369995  22.3460007  91.0810013  95.6989975
  23.3859997  89.9240036  93.4290009  23.4249992  88.7369995  93.7529984
  22.8020000  90.3089981  92.2760010  22.7399998  91.2770004  92.0449982
  22.2380009  89.3899994  91.3040009  21.5289993  88.7699966  91.8330002
  21.4449997  90.1559982  90.2180023  22.1049995  90.9049988  89.7310028
  20.6469994  90.7180023  90.7480011  20.8129997  89.2490005  89.1350021
  20.4740009  88.3040009  89.6119995  21.5599995  88.9919968  88.3539963
  19.6009998  89.9039993  88.4739990  19.7630005  90.9189987  87.7470016
  18.4619999  89.3889999  88.6640015  23.2509995  88.4260025  90.6900024
  23.0030003  87.2220001  90.5749969  24.4570007  88.9240036  90.3420029
  24.6210003  89.9069977  90.3779984  25.5809994  88.1100006  89.9140015
  25.2819996  87.5599976  89.0339966  26.7759991  89.0370026  89.5609970
  26.9449997  89.7300034  90.4130020  26.4820004  89.6620026  88.6910019
  28.1240005  88.3519974  89.2379990  28.4549999  87.7659988  90.1210022
  28.0130005  87.3980026  88.0419998  27.7049999  87.9629974  87.1360016
  27.2709999  86.5940018  88.2350006  28.9969997  86.9260025  87.8330002
  29.2059994  89.4100037  88.9639969  29.3169994  90.0910034  89.8339996
  28.9349995  90.0159988  88.0729980  30.1849995  88.9209976  88.7689972
  26.0079994  87.0790024  90.9580002  26.1550007  85.8909988  90.6630020
  26.1439991  87.5019989  92.2340012  26.0540009  88.4729996  92.4440002
  26.4249992  86.6200027  93.3509979  27.3430004  86.0960007  93.1289978
  26.6429996  87.4570007  94.6409988  25.7900009  88.1620026  94.7419968
  27.5559998  88.0709991  94.4889984  26.7759991  86.6380005  95.9489975
  27.6060009  85.9059982  95.8460007  25.8460007  86.0739975  96.1750031
  27.0930004  87.5350037  97.1480026  28.1919994  87.5100021  97.7099991
  26.0990009  88.3529968  97.5680008  26.2719994  88.9479980  98.3529968
  25.2099991  88.3349991  97.1119995  25.3689995  85.5419998  93.5889969
  25.6840000  84.3619995  93.7539978  24.0760002  85.9250031  93.5640030
  23.8519993  86.8909988  93.4619980  22.9449997  85.0250015  93.6959991
  23.0410004  84.5039978  94.6380005  21.6359997  85.8570023  93.7040024
  21.5779991  86.4290009  92.7529984  21.7089996  86.6070023  94.5210037
  20.3230000  85.0520020  93.8669968  20.2310009  84.2839966  93.0699997
  19.4599991  85.7440033  93.7669983  20.2150002  84.3799973  95.2350006
  20.0769997  83.1279984  95.2939987  20.2350006  85.0989990  96.2710037
  22.8869991  83.9639969  92.5999985  22.7220001  82.7689972  92.8570023
  23.0949993  84.3820038  91.3310013  23.2080002  85.3570023  91.1549988
  23.1459999  83.4909973  90.1790009  23.2789993  84.1129990  89.3059998
  22.2329998  82.9140015  90.1520004  24.2959995  82.5210037  90.2030029
  24.1270008  81.3300018  89.9430008  25.5049992  83.0049973  90.5429993
  25.6280003  83.9810028  90.7040024  26.6889992  82.1880035  90.7099991
  26.8640003  81.6630020  89.7829971  27.8880005  83.1050034  91.0130005
  27.7390003  83.6529999  91.9680023  27.9939995  83.8580017  90.2030029
  28.8330002  82.5240021  91.0749969  26.5550003  81.1380005  91.8089981
  26.8799992  79.9660034  91.6139984  26.0100002  81.5309982  92.9789963
  25.7870007  82.4929962  93.1200027  25.7159996  80.6439972  94.0889969
  26.6369991  80.1620026  94.3840027  25.1730003  81.4929962  95.2699966
  24.3239994  82.1019974  94.8919983  25.9619999  82.2129974  95.5729980
  24.6739998  80.7200012  96.5139999  23.8519993  80.0299988  96.2269974
  24.2240009  81.4599991  97.2099991  25.7469997  79.9110031  97.2630005
  26.2339993  79.1859970  96.5770035  25.3129997  79.3349991  98.1080017
  26.7849998  80.8700027  97.7659988  27.6429996  80.9680023  97.2620010
  26.6590004  81.6409988  98.8410034  27.6310005  82.4800034  99.1429977
  28.4459991  82.5260010  98.5650024  27.5450001  83.0660019  99.9479980
  25.6070004  81.6139984  99.6299973  25.5680008  82.2170029 100.4270020
  24.8610001  80.9779968  99.4309998  24.7250004  79.5380020  93.7460022
  24.9389992  78.3610001  94.0400009  23.6180000  79.8970032  93.0670013
  23.4449997  80.8610001  92.8809967  22.6140003  78.9660034  92.5920029
  22.2670002  78.3949966  93.4400024  21.4270000  79.7770004  92.0179977
  21.7900009  80.3889999  91.1650009  21.1040001  80.4869995  92.8099976
  20.2070007  78.9319992  91.5869980  19.8349991  78.3389969  92.4499969
  20.4829998  78.2220001  90.7770004  19.1000004  79.8399963  91.0469971
  19.2600002  80.4729996  89.9980011  17.9510002  79.9189987  91.7539978
  17.2220001  80.5090027  91.4079971  17.8500004  79.4079971  92.6070023
  23.1439991  77.9639969  91.5660019  22.8990002  76.7600021  91.6589966
  23.9340000  78.4420013  90.5780029  24.0960007  79.4229965  90.5039978
  24.5979996  77.6039963  89.5910034  23.8419991  77.0100021  89.0989990
  25.2950001  78.4970016  88.5289993  26.0440006  79.1419983  89.0350037
  24.5219994  79.1699982  88.0999985  25.9540005  77.7149963  87.3750000
  25.1959991  77.0169983  86.9589996  26.7880001  77.0849991  87.7529984
  26.4430008  78.6149979  86.2170029  25.5629997  79.1740036  85.8310013
  26.7940006  77.9680023  85.3850021  27.5349998  79.6480026  86.5609970
  27.2059994  80.3150024  87.3860016  27.7439995  80.2750015  85.6679993
  28.8090000  78.9850006  86.9629974  29.1270008  78.3239975  86.2249985
  28.6959991  78.4550018  87.8509979  29.5599995  79.6910019  87.1050034
  25.5979996  76.6240005  90.2020035  25.6189995  75.4359970  89.8759995
  26.4239998  77.1009979  91.1579971  26.4160004  78.0739975  91.3789978
  27.3560009  76.2929993  91.9250031  28.0270004  75.8079987  91.2310028
  28.1730003  77.2170029  92.8649979  27.4610004  77.8180008  93.4710007
  28.7460003  77.9319992  92.2360001  29.1550007  76.5240021  93.8359985
  28.5939999  75.8079987  94.4739990  30.2500000  75.7460022  93.0889969
  30.8279991  76.4309998  92.4319992  29.8080006  74.9410019  92.4639969
  30.9529991  75.2819977  93.8130035  29.7840004  77.5619965  94.7770004
  28.9960003  78.1210022  95.3259964  30.3980007  78.2860031  94.1999969
  30.4389992  77.0579987  95.5210037  26.6790009  75.1910019  92.7310028
  27.1060009  74.0360031  92.7279968  25.5590000  75.5159988  93.4120026
  25.2619991  76.4680023  93.4390030  24.7509995  74.5510025  94.1389999
  25.3889999  74.0739975  94.8669968  23.6040001  75.2730026  94.8939972
  23.0349998  75.8929977  94.1689987  24.0459995  75.9680023  95.6399994
  22.9120007  73.6370010  96.7229996  23.7900009  73.5960007  97.2009964
  22.6240005  74.3610001  95.5849991  21.7709999  73.0019989  97.0930023
  21.7150002  72.3550034  97.9680023  20.7670002  73.2770004  96.2750015
  21.3050003  74.1370010  95.3270035  20.6910000  74.5380020  94.5289993
  24.1819992  73.4339981  93.2639999  24.2700005  72.2519989  93.6029968
  23.6289997  73.7779999  92.0790024  23.5349998  74.7379990  91.8239975
  23.1809998  72.7929993  91.1070023  22.4810009  72.1409988  91.6070023
  22.4410000  73.4629974  89.9199982  23.1350002  74.1549988  89.3970032
  21.6110001  74.0729980  90.3359985  21.8670006  72.4380035  88.9079971
  21.1690006  71.7559967  89.4390030  22.6889992  71.8229980  88.4830017
  21.1070004  73.0770035  87.7480011  20.1429996  73.8519974  87.9860001
  21.4400005  72.7509995  86.5739975  24.3010006  71.8980026  90.5749969
  24.1690006  70.6740036  90.5080032  25.4629993  72.4929962  90.2269974
  25.5419998  73.4860001  90.2600021  26.6420002  71.7720032  89.7799988
  26.3649998  71.1979980  88.9089966  27.7469997  72.7910004  89.3939972
  27.9330006  73.4570007  90.2630005  27.3540001  73.4290009  88.5729980
  29.1019993  72.1969986  88.9469986  29.5139999  71.5820007  89.7750015
  28.9589996  71.2949982  87.7119980  28.5279999  71.8639984  86.8610001
  28.2999992  70.4280014  87.9339981  29.9519997  70.9020004  87.4059982
  30.1159992  73.3199997  88.6750031  30.2560005  73.9449997  89.5830002
  29.7609997  73.9710007  87.8479996  31.1000004  72.8909988  88.3889999
  27.1690006  70.7819977  90.8160019  27.4309998  69.6159973  90.5169983
  27.2590008  71.2119980  92.0910034  27.0629997  72.1669998  92.3010025
  27.6450005  70.3779984  93.2119980  28.6320000  69.9899979  93.0080032
  27.7099991  71.2500000  94.4960022  26.7469997  71.7959976  94.5889969
  28.5020008  72.0120010  94.3389969  27.9659996  70.4779968  95.8130035
  28.9209995  69.9150009  95.7529984  27.1480007  69.7519989  96.0100021
  28.0179996  71.4229965  97.0169983  27.1219997  71.4410019  97.8669968
  29.0970001  72.2340012  97.1070023  29.1599998  72.8590012  97.8850021
  29.8120003  72.1930008  96.4089966  26.7399998  69.1660004  93.4290009
  27.2099991  68.0429993  93.6279984  25.4069996  69.3629990  93.3509979
  25.0459995  70.2839966  93.2259979  24.4330006  68.2890015  93.3929977
  24.5790005  67.7429962  94.3140030  23.0060005  68.9000015  93.4010010
  22.8999996  69.5490036  92.5049973  22.9200001  69.5640030  94.2870026
  21.8279991  67.8919983  93.3990021  21.8700008  67.2450027  92.4980011
  20.8719997  68.4580002  93.3600006  21.7929993  67.0169983  94.6510010
  21.8029995  65.7630005  94.5210037  21.7210007  67.5690002  95.7819977
  24.5709991  67.2770004  92.2509995  24.6140003  66.0640030  92.4670029
  24.7010002  67.7639999  90.9980011  24.6529999  68.7480011  90.8450012
  24.8770008  66.9449997  89.8119965  24.0720005  66.2239990  89.8270035
  24.6720009  67.7799988  88.5240021  24.9799995  67.1819992  87.6389999
  25.3090000  68.6890030  88.5660019  23.1959991  68.1679993  88.3209991
  22.8309994  68.7170029  89.2139969  22.5990009  67.2340012  88.2379990
  22.9489994  69.0360031  87.0719986  23.3990002  68.5289993  86.1910019
  23.4720001  70.0059967  87.2119980  21.4470005  69.2669983  86.8180008
  20.9629993  69.6819992  87.7279968  20.9589996  68.3020020  86.5660019
  21.2129993  70.2170029  85.6989975  21.8099995  69.9879990  84.8779984
  21.4109993  71.1910019  86.0059967  20.2169991  70.1829987  85.4039993
  26.1450005  66.0920029  89.7360001  26.1030006  64.9329987  89.3190002
  27.3090000  66.6360016  90.1470032  27.3379993  67.5960007  90.4169998
  28.5769997  65.9189987  90.2020035  28.7590008  65.5169983  89.2170029
  29.7409992  66.8809967  90.5660019  30.6669998  66.3059998  90.7779999
  29.4629993  67.4290009  91.4919968  30.0939999  67.9110031  89.4680023
  29.1620007  68.4209976  89.1449966  31.0389996  68.9869995  90.0230026
  31.9930000  68.5299988  90.3629990  30.5680008  69.5090027  90.8830032
  31.2679996  69.7409973  89.2399979  30.7140007  67.2500000  88.2269974
  30.0090008  66.5260010  87.7669983  31.6480007  66.7139969  88.4990005
  30.9610004  68.0220032  87.4670029  28.6149998  64.7109985  91.1460037
  29.2280006  63.6850014  90.8440018  27.9729996  64.8160019  92.3290024
  27.4500008  65.6439972  92.5169983  28.0949993  63.8520012  93.4250031
  29.1399994  63.8460007  93.6969986  27.3199997  64.3619995  94.6839981
  26.2409992  64.4739990  94.4440002  27.7040005  65.3759995  94.9229965
  27.4780006  63.5309982  95.8460007  26.9549999  62.7350006  95.7229996
  27.7479992  62.3769989  93.1360016  28.5650005  61.5279999  93.5110016
  26.6590004  61.9469986  92.4800034  25.4880009  62.7680016  92.1539993
  25.7619991  63.6870003  91.5940018  24.9589996  63.0379982  93.0930023
  26.3810005  60.5209999  92.2880020  26.5569992  59.9949989  93.2149963
  24.8980007  60.4700012  91.8750000  24.2819996  60.3300018  92.7890015
  24.6620007  59.6510010  91.1630020  24.6100006  61.8580017  91.2959976
  24.9440002  61.9059982  90.2369995  23.5340004  62.1310005  91.3509979
  27.2950001  59.8969994  91.2450027  27.6310005  58.7169991  91.3590012
  27.6860008  60.6520004  90.2009964  27.3680000  61.5950012  90.1409988
  28.5879993  60.2029991  89.1549988  28.1569996  59.3100014  88.7249985
  28.6840000  61.2980003  88.0630035  29.0839996  62.2299995  88.5169983
  27.6499996  61.5180016  87.7210007  29.5300007  60.9560013  86.8160019
  30.5900002  60.8460007  87.1289978  29.0939999  59.6409988  86.1510010
  28.0249996  59.6870003  85.8550034  29.2380009  58.7809982  86.8389969
  29.7010002  59.4589996  85.2379990  29.4570007  62.1069984  85.7990036
  29.8120003  63.0550003  86.2559967  28.4109993  62.2509995  85.4530029
  30.0909996  61.8829994  84.9140015  29.9680004  59.8129997  89.6859970
  30.5359993  58.7809982  89.3249969  30.5149994  60.6170006  90.6279984
  30.0400009  61.4580002  90.8769989  31.7570000  60.3110008  91.3339996
  31.9850006  61.1500015  91.9739990  32.5270004  60.1259995  90.5989990
  31.6760006  59.0839996  92.2160034  32.6059990  58.2820015  92.2730026
  30.5450001  58.8880005  92.9209976  29.8320007  59.5849991  92.9140015
  30.2749996  57.6850014  93.6979980  31.0730000  57.5760002  94.4169998
  28.9340000  57.8460007  94.4550018  28.0690002  57.7919998  93.7600021
  28.9430008  58.8779984  94.8659973  28.7490005  56.9080009  95.6800003
  27.9230003  57.3139992  96.3020020  29.6819992  56.9490013  96.2809982
  28.4060001  55.4459991  95.3960037  27.3379993  55.1669998  94.7880020
  29.1800003  54.5589981  95.8570023  30.2399998  56.4179993  92.8320007
  30.8759995  55.4059982  93.1370010  29.5520000  56.4690018  91.6729965
  29.0049992  57.2750015  91.4599991  29.5440006  55.4039993  90.6829987
  29.2080002  54.5060005  91.1790009  28.5389996  55.7599983  89.5530014
  28.8339996  56.7589989  89.1660004  27.5259991  55.8740005  89.9950027
  28.4899998  54.8289986  88.3150024  29.5160007  54.6160011  87.9449997
  27.9300003  55.3450012  87.5059967  27.8069992  53.4840012  88.5429993
  26.7630005  53.3979988  89.2429962  28.2660007  52.4900017  87.9130020
  30.9300003  55.0810013  90.1110001  31.3199997  53.9169998  89.9850006
  31.7360001  56.1199989  89.7959976  31.3820000  57.0499992  89.8560028
  33.1250000  55.9819984  89.3899994  33.1440010  55.3460007  88.5169983
  33.7350006  57.3540001  89.0029984  33.7420006  58.0159988  89.8939972
  33.0719986  57.8279991  88.2480011  35.1559982  57.2579994  88.4079971
  35.0999985  56.5760002  87.5319977  35.8429985  56.7830009  89.1399994
  35.8629990  58.8470001  87.8720016  36.2579994  59.4640007  89.5339966
  36.9449997  58.7690010  90.0630035  35.3440018  59.5820007  90.1539993
  36.7599983  60.4539986  89.4769974  34.0060005  55.3139992  90.4499969
  34.8059998  54.4259987  90.1470032  33.8470001  55.6940002  91.7399979
  33.2430000  56.4570007  91.9570007  34.5070000  55.0509987  92.8639984
  35.5730019  55.1269989  92.7089996  34.1419983  55.7789993  94.1910019
  33.0359993  55.8699989  94.2450027  34.5419998  56.8139992  94.1380005
  34.6419983  55.1069984  95.4909973  35.7529984  55.1290016  95.4769974
  34.3450012  54.0369987  95.5419998  34.1669998  55.7779999  96.7919998
  34.2939987  56.8810005  96.7470016  34.7470016  55.3670006  97.6460037
  32.7140007  55.4459991  96.9589996  32.2120018  55.0320015  96.1989975
  32.0390015  55.5470009  98.0970001  30.7950001  55.1150017  98.1330032
  30.2549992  55.2299995  98.9670029  30.3500004  54.8120003  97.2900009
  32.5680008  56.0629997  99.1869965  33.4970016  56.4300003  99.1490021
  32.0209999  56.1389999 100.0210037  34.1899986  53.5610008  92.9940033
  35.0839996  52.7280006  93.1549988  32.9010010  53.1819992  92.8820038
  32.1889992  53.8720016  92.7829971  32.4529991  51.8040009  92.8840027
  32.8170013  51.3540001  93.7949982  30.8999996  51.7960014  92.8820038
  30.5209999  52.1990013  91.9189987  30.5410004  52.4620018  93.6949997
  30.2989998  50.4169998  93.1210022  30.9120007  49.5839996  93.8379974
  29.1359997  50.1940002  92.6849976  33.0330009  50.9869995  91.7170029
  33.5270004  49.8689995  91.8820038  33.0359993  51.5699997  90.5000000
  32.6010017  52.4589996  90.3779984  33.6419983  50.9860001  89.3209991
  33.1879997  50.0169983  89.1740036  33.3750000  51.9020004  88.0989990
  33.9150009  52.8600006  88.2600021  32.2949982  52.1650009  88.0670013
  33.8009987  51.3310013  86.7279968  34.7869987  50.8240013  86.7949982
  33.9430008  52.2010002  86.0520020  32.7840004  50.4070015  86.0329971
  33.1320000  50.2060013  84.9970016  31.7849998  50.8880005  85.9639969
  32.7109985  49.0900002  86.7460022  33.4199982  48.4090004  86.5630035
  31.6819992  48.6430016  87.4560013  31.6639996  47.3670006  87.7819977
  30.8479996  46.9850006  88.2160034  32.3009987  46.7669983  87.2969971
  30.6889992  49.4049988  87.8600006  30.7140007  50.3899994  87.6859970
  29.9729996  49.0130005  88.4369965  35.1469994  50.7500000  89.4639969
  35.6609993  49.6730003  89.1520004  35.8889999  51.7430000  89.9950027
  35.4710007  52.6259995  90.1959991  37.2919998  51.6220016  90.3199997
  37.8209991  51.3479996  89.4189987  37.8160019  52.9790001  90.8199997
  37.2809982  53.2989998  91.7399979  37.6599998  53.7579994  90.0439987
  38.9029999  52.9249992  91.0429993  37.5919991  50.5470009  91.3629990
  38.4949989  49.7270012  91.1920013  36.7989998  50.4900017  92.4509964
  36.0979996  51.1860008  92.5859985  36.8950005  49.4739990  93.4820023
  37.8950005  49.5110016  93.8899994  35.8829994  49.8050003  94.6090012
  34.8750000  49.9150009  94.1549988  36.1570015  50.8009987  95.0199966
  35.7840004  48.7739983  95.7549973  36.7779999  48.6469994  96.2350006
  35.4939995  47.7859993  95.3379974  34.7319984  49.1279984  96.8190002
  34.6469994  48.3139992  97.5699997  33.7490005  49.2929993  96.3280029
  35.1860008  50.3810005  97.5039978  36.1279984  50.6940002  97.3789978
  34.4329987  51.1020012  98.3270035  34.9440002  52.1800003  98.8889999
  35.9029999  52.4140015  98.7300034  34.3989983  52.6949997  99.5510025
  33.1920013  50.7799988  98.6190033  32.7989998  49.9459991  98.2320023
  32.6679993  51.3460007  99.2559967  36.6860008  48.0519981  92.9649963
  37.4599991  47.1370010  93.2590027  35.6539993  47.8479996  92.1190033
  35.0130005  48.5880013  91.9309998  35.4109993  46.6069984  91.4169998
  35.3110008  45.8219986  92.1510010  34.0989990  46.7280006  90.6169968
  34.1679993  47.5369987  89.8590012  33.2599983  46.9720001  91.3030014
  33.8590012  45.7750015  90.0999985  36.5489998  46.2060013  90.4769974
  36.9900017  45.0550003  90.4589996  37.0839996  47.1669998  89.6969986
  36.6809998  48.0789986  89.6930008  38.2290001  46.9580002  88.8300018
  37.9809990  46.1409988  88.1679993  38.5169983  48.2060013  87.9649963
  38.8089981  49.0530014  88.6220016  37.5849991  48.5050011  87.4380035
  39.4059982  47.3650017  85.7300034  38.5509987  46.9679985  85.3960037
  39.6059990  47.9840012  86.9479980  40.5810013  47.4280014  85.0540009
  40.7070007  47.0130005  84.0540009  41.5190010  48.0519981  85.7480011
  40.9020004  48.4070015  86.9400024  41.4420013  48.9510002  87.7050018
  39.5029984  46.5499992  89.5680008  40.2029991  45.6250000  89.1579971
  39.8180008  47.2010002  90.7080002  39.2789993  47.9879990  90.9990005
  40.9280014  46.8320007  91.5759964  41.8240013  46.8349991  90.9739990
  41.1290016  47.8530006  92.6959991  40.1500015  48.0709991  93.1740036
  42.1080017  47.3540001  93.7809982  43.0670013  47.0349998  93.3199997
  41.6850014  46.5029984  94.3570023  42.3250008  48.1720009  94.5000000
  41.6809998  49.1450005  92.0660019  41.0050011  49.5369987  91.2760010
  42.6769981  48.9539986  91.6110001  41.7989998  49.9309998  92.8430023
  40.8110008  45.4150009  92.1299973  41.7709999  44.6430016  92.1179962
  39.6100006  45.0040016  92.5889969  38.8450012  45.6409988  92.6389999
  39.3470001  43.6370010  92.9929962  40.0919991  43.3889999  93.7340012
  37.9440002  43.5649986  93.6539993  37.1580009  43.7179985  92.8840027
  37.8559990  44.3839989  94.4000015  37.6839981  42.2519989  94.3830032
  36.4920006  41.9729996  94.6869965  38.6539993  41.5309982  94.7440033
  39.5169983  42.6180000  91.8470001  40.1320000  41.5610008  92.0029984
  39.0200005  42.9329987  90.6320038  38.4760017  43.7610016  90.5159988
  39.2430000  42.1370010  89.4390030  38.8720016  41.1419983  89.6380005
  38.4410019  42.7410011  88.2689972  38.8110008  43.7560005  88.0130005
  37.3699989  42.8269997  88.5510025  38.5089989  42.0989990  87.3649979
  40.7220001  41.9949989  89.0490036  41.2089996  40.9010010  88.7580032
  41.4850006  43.0999985  89.0970001  41.0559998  43.9809990  89.2809982
  42.9239998  43.1489983  88.9270020  43.1720009  42.7579994  87.9509964
  43.3400002  44.6409988  89.0039978  42.7340012  45.0999985  89.8140030
  43.0400009  45.1440010  88.0599976  44.8100014  44.9910011  89.3239975
  45.1290016  44.4580002  90.2450027  45.7729988  44.6100006  88.1890030
  45.5060005  45.1520004  87.2559967  45.7360001  43.5169983  87.9919968
  46.8139992  44.8839989  88.4629974  44.9039993  46.4900017  89.6500015
  44.1940002  46.7620010  90.4599991  44.6739998  47.1010017  88.7509995
  45.9309998  46.7360001  89.9940033  43.6910019  42.3050003  89.9440002
  44.5569992  41.5019989  89.5910034  43.3320007  42.4150009  91.2399979
  42.6679993  43.1100006  91.5049973  43.8479996  41.5940018  92.3180008
  44.9199982  41.7159996  92.3570023  43.2120018  42.0569992  93.6559982
  42.1100006  41.9620018  93.5510025  43.4230003  43.1389999  93.7949982
  43.6730003  41.2910004  94.9169998  44.6640015  41.6899986  95.2190018
  43.8230019  40.2130013  94.6940002  42.7099991  41.4020004  96.1149979
  42.5229988  42.4690018  96.3619995  43.1310005  40.9119987  97.0179977
  41.4070015  40.7579994  95.7399979  40.6269989  41.3100014  95.4430008
  41.1769981  39.4529991  95.6910019  39.9900017  39.0709991  95.2740021
  39.3689995  39.7960014  94.9739990  39.7999992  38.1040001  95.1009979
  42.0610008  38.5419998  96.0339966  42.9389992  38.8380013  96.4110031
  41.7960014  37.5779991  96.0469971  43.5589981  40.1090012  92.1090012
  44.4319992  39.2529984  92.2620010  42.3160019  39.7820015  91.7009964
  41.6360016  40.5070000  91.6320038  41.8689995  38.4290009  91.3789978
  42.0379982  37.8170013  92.2529984  40.3820000  38.3520012  91.0179977
  40.1699982  38.9739990  90.1230011  39.5750008  38.8199997  92.0920029
  39.7389984  39.7630005  92.1650009  39.9379997  36.9039993  90.7399979
  40.1710014  36.2529984  91.6090012  40.4360008  36.4869995  89.8389969
  38.8429985  36.8680000  90.5609970  42.6720009  37.8120003  90.2480011
  43.0970001  36.6619987  90.3270035  42.9350014  38.5769997  89.1669998
  42.5309982  39.4850006  89.0899963  43.8250008  38.1629982  88.0960007
  43.4620018  37.2179985  87.7190018  43.7729988  39.1899986  86.9349976
  44.0709991  40.1889992  87.3180008  42.7229996  39.2770004  86.5820007
  44.3849983  37.8450012  84.8590012  43.6380005  37.1829987  84.9130020
  44.6520004  38.8580017  85.7570038  45.3409996  37.9010010  83.8980026
  45.3740005  37.2039986  83.0609970  46.2000008  38.8849983  84.1110001
  45.7589989  39.4939995  85.2789993  46.2739983  40.3559990  85.6839981
  45.2809982  37.9370003  88.5220032  45.8969994  36.9220009  88.1949997
  45.8559990  38.8829994  89.2929993  45.3460007  39.7070007  89.5270004
  47.2190018  38.8400002  89.7939987  47.8680000  38.7050018  88.9410019
  47.5359993  40.2159996  90.4410019  46.7869987  40.4119987  91.2369995
  47.3950005  40.9959984  89.6630020  48.9459991  40.3989983  91.0510025
  49.0740013  39.6730003  91.8820038  50.0610008  40.1539993  90.0199966
  49.9560013  40.8569984  89.1660004  50.0219994  39.1139984  89.6330032
  51.0550003  40.3160019  90.4879990  49.0830002  41.8100014  91.6460037
  48.3009987  41.9889984  92.4150009  48.9760017  42.5769997  90.8489990
  50.0800018  41.9360008  92.1200027  47.5530014  37.7029991  90.7679977
  48.5810013  37.0299988  90.6480026  46.6790009  37.4539986  91.7649994
  45.8419991  37.9900017  91.8330002  46.9519997  36.5699997  92.8850021
  47.8219986  36.9770012  93.3779984  45.7849998  36.6609993  93.8909988
  44.8359985  36.3009987  93.4390030  45.6360016  37.7179985  94.1979980
  45.9959984  36.0639992  94.8040009  47.2999992  35.0919991  92.6080017
  48.2830009  34.6339989  93.2020035  46.6489983  34.2840004  91.7570038
  45.3849983  34.5979996  91.0869980  45.4510002  35.5460014  90.5120010
  44.5769997  34.6660004  91.8460007  47.0110016  32.8790016  91.5899963
  47.1800003  32.4300003  92.5579987  45.8030014  32.2509995  90.8710022
  45.0999985  31.8579998  91.6370010  46.0760002  31.4200001  90.1859970
  45.1339989  33.4199982  90.1439972  45.6409988  33.6020012  89.1729965
  44.0509987  33.2500000  89.9619980  48.2989998  32.7430000  90.8030014
  49.1069984  31.8680000  91.1110001  48.5190010  33.5909996  89.7770004
  47.8269997  34.2690010  89.5429993  49.7529984  33.6150017  89.0169983
  49.9160004  32.6110001  88.6549988  49.6240005  34.5610008  87.7900009
  49.4659996  35.6100006  88.1169968  48.7570000  34.2550011  87.1669998
  50.8670006  34.4790001  86.9410019  51.0919991  33.3450012  86.1419983
  50.3460007  32.5649986  86.0989990  52.2929993  33.2029991  85.4349976
  52.4640007  32.3289986  84.8239975  53.2779999  34.1920013  85.5230026
  54.5040016  34.0130005  84.8489990  55.0540009  34.7820015  85.0139999
  51.8419991  35.4869995  86.9899979  51.6819992  36.3590012  87.6060028
  53.0480003  35.3400002  86.2910004  53.7989998  36.1129990  86.3629990
  50.9659996  33.9550018  89.8929977  52.0219994  33.3320007  89.7919998
  50.8199997  34.9300003  90.8170013  49.9669991  35.4459991  90.8479996
  51.8429985  35.2840004  91.7969971  52.7290001  35.5670013  91.2480011
  51.3860016  36.4980011  92.6620026  50.4679985  36.2190018  93.2220001
  51.1139984  37.3330002  91.9820023  52.3849983  36.9440002  93.5910034
  53.0830002  37.3759995  93.0940018  52.2389984  34.1189995  92.7099991
  53.4220009  33.8670006  92.9540024  51.2519989  33.3339996  93.1969986
  50.2970009  33.5620003  93.0210037  51.4860001  32.1139984  93.9499969
  52.0950012  32.3790016  94.8010025  50.1100006  31.5830002  94.4440002
  49.5050011  31.2539997  93.5729980  49.5639992  32.4109993  94.9449997
  50.2000008  30.4300003  95.4349976  49.1780014  29.7099991  95.6009979
  51.2360001  30.2859993  96.1360016  52.2700005  31.0499992  93.1500015
  53.2560005  30.4780006  93.6259995  51.8919983  30.8110008  91.8710022
  51.0730019  31.2450008  91.5039978  52.6430016  29.9570007  90.9619980
  52.7379990  28.9890003  91.4319992  51.9210014  29.7530003  89.6019974
  52.5999985  29.1550007  88.9570007  51.7459984  30.7339993  89.1129990
  50.5890007  28.9699993  89.6979980  49.8380013  29.5820007  90.2419968
  50.7550011  28.0349998  90.2750015  49.9889984  28.5779991  88.3489990
  48.8629990  28.0090008  88.3489990  50.6119995  28.7959995  87.2710037
  54.0699997  30.4410000  90.6910019  55.0260010  29.6660004  90.7050018
  54.2560005  31.7539997  90.4680023  53.4620018  32.3549995  90.4120026
  55.5390015  32.3889999  90.2409973  55.9799995  31.9200001  89.3740005
  55.3100014  33.8909988  89.9580002  54.8800011  34.3689995  90.8649979
  54.5499992  33.9830017  89.1520004  56.5569992  34.6839981  89.5260010
  57.3629990  34.5489998  90.2799988  57.0839996  34.1969986  88.1699982
  56.2900009  34.2690010  87.3960037  57.4379997  33.1450005  88.2310028
  57.9360008  34.8370018  87.8550034  56.2420006  36.1860008  89.4680023
  55.9430008  36.5610008  90.4700012  55.4109993  36.3759995  88.7549973
  57.1349983  36.7529984  89.1279984  56.5279999  32.2150002  91.3949966
  57.7060013  31.9069996  91.1979980  56.0519981  32.3639984  92.6470032
  55.1119995  32.6679993  92.7809982  56.8180008  32.0909996  93.8479996
  57.7070007  32.7050018  93.8140030  55.9840012  32.4959984  95.0849991
  55.0820007  31.8509998  95.1569977  55.6240005  33.5320015  94.9049988
  56.7570000  32.4550018  96.4199982  57.6749992  33.0750008  96.3330002
  57.0830002  31.4120007  96.6220016  55.9379997  32.9290009  97.6309967
  56.5289993  32.8460007  98.5680008  55.0190010  32.3089981  97.7099991
  55.5950012  34.3699989  97.3960037  56.1990013  34.9199982  96.8190002
  54.4970016  34.9690018  97.8379974  54.2099991  36.1819992  97.4079971
  54.7770004  36.5979996  96.6979980  53.3460007  36.6080017  97.6800003
  53.6730003  34.4049988  98.6949997  53.9280014  33.5299988  99.1060028
  52.8889999  34.9199982  99.0410004  57.2830009  30.6329994  93.9560013
  58.4309998  30.3460007  94.2990036  56.4010010  29.6669998  93.6149979
  55.4659996  29.9190006  93.3779984  56.7379990  28.2570000  93.4869995
  57.1699982  27.9470005  94.4270020  55.4580002  27.4039993  93.2659988
  54.8639984  27.8640003  92.4479980  54.8479996  27.4780006  94.1920013
  55.7080002  25.9179993  92.9029999  56.3479996  25.4360008  93.6719971
  56.2249985  25.8369999  91.9229965  54.4000015  25.1320000  92.7829971
  53.9840012  24.7229996  91.6949997  53.7270012  24.8980007  93.9339981
  52.8699989  24.3859997  93.8889999  54.0950012  25.2299995  94.8030014
  57.8030014  27.9500008  92.4319992  58.7190018  27.1560001  92.6539993
  57.7280006  28.6119995  91.2580032  56.9449997  29.2049999  91.0839996
  58.7039986  28.5060005  90.1869965  58.7470016  27.4629993  89.9069977
  58.2719994  29.2940006  88.9250031  59.1139984  29.3530006  88.2030029
  58.0089989  30.3330002  89.2200012  57.0859985  28.6350002  88.1949997
  56.2830009  28.4179993  88.9319992  57.4259987  27.6620007  87.7819977
  56.4959984  29.4939995  87.0719986  57.2379990  29.6560001  86.2620010
  56.1739998  30.4780006  87.4759979  55.3429985  28.7040005  86.5289993
  55.4949989  27.7380009  86.3209991  54.0750008  29.0900002  86.5429993
  53.1329994  28.1819992  86.3919983  52.2050018  28.4370003  86.6640015
  53.3889999  27.2159996  86.3649979  53.6949997  30.3339996  86.7210007
  54.3849983  31.0559998  86.6699982  52.7190018  30.5429993  86.6589966
  60.1300011  28.8740005  90.5749969  61.0760002  28.1919994  90.1819992
  60.3310013  29.9290009  91.3929977  59.5620003  30.4979992  91.6740036
  61.6450005  30.2800007  91.9150009  62.2890015  30.5020008  91.0770035
  61.5400009  31.5330009  92.8300018  60.7570000  31.3460007  93.5950012
  61.1980019  32.3909988  92.2119980  62.8370018  31.9410000  93.5729980
  63.1990013  31.0849991  94.1819992  63.9510002  32.3149986  92.5849991
  63.6300011  33.1689987  91.9509964  64.2050018  31.4580002  91.9250031
  64.8679962  32.6119995  93.1370010  62.5760002  33.0830002  94.5699997
  61.8180008  32.7760010  95.3219986  62.2039986  33.9879990  94.0449982
  63.5149994  33.3499985  95.1009979  62.3089981  29.1509991  92.7040024
  63.4659996  28.7929993  92.4670029  61.5569992  28.5170002  93.6309967
  60.6199989  28.8169994  93.7990036  62.0110016  27.3680000  94.3840027
  62.9249992  27.6429996  94.8889999  60.9469986  26.9909992  95.4339981
  59.9889984  26.7099991  94.9469986  60.7550011  27.8549995  96.1050034
  61.2910004  26.1380005  96.0569992  62.3300018  26.1569996  93.5100021
  63.3709984  25.5139999  93.6620026  61.4430008  25.8490009  92.5390015
  60.6010017  26.3750000  92.4560013  61.6240005  24.7709999  91.5889969
  61.7369995  23.8530006  92.1470032  60.3689995  24.6730003  90.6989975
  60.2290001  25.6009998  90.1039963  59.4659996  24.5300007  91.3310013
  60.4430008  23.8120003  90.0009995  62.8660011  24.9169998  90.7060013
  63.6500015  23.9780006  90.5490036  63.0970001  26.1229992  90.1429977
  62.4329987  26.8589993  90.2470016  64.2949982  26.4440002  89.3899994
  64.3840027  25.7350006  88.5790024  64.1920013  27.8750000  88.7959976
  65.1660004  28.1870003  88.3639984  63.9490013  28.5739994  89.6240005
  63.1259995  28.0200005  87.6900024  62.2029991  27.4839993  87.9990005
  63.4970016  27.5330009  86.7630005  62.7620010  29.4839993  87.4059982
  63.6409988  30.0440006  87.0189972  62.3820000  29.9650002  88.3320007
  61.6889992  29.4610004  86.3700027  61.4809990  28.6170006  85.8759995
  60.9090004  30.4710007  86.0250015  59.9949989  30.1940002  85.1179962
  60.0390015  29.2590008  84.7679977  59.4259987  30.9150009  84.7210007
  61.0019989  31.6809998  86.5250015  61.7449989  31.8859997  87.1620026
  60.3919983  32.4020004  86.1969986  65.5830002  26.3530006  90.1999969
  66.5429993  25.6930008  89.8010025  65.6110001  26.9880009  91.3889999
  64.8190002  27.5070000  91.7030029  66.7720032  27.0310001  92.2549973
  67.5889969  27.3950005  91.6490021  66.5469971  28.0400009  93.4069977
  65.7089996  27.6860008  94.0449982  66.2300034  29.0030003  92.9530029
  67.7789993  28.3260002  94.2979965  68.0859985  27.3820000  94.7949982
  68.9759979  28.8500004  93.4850006  68.6949997  29.7749996  92.9359970
  69.3219986  28.0919991  92.7509995  69.8249969  29.0900002  94.1600037
  67.4150009  29.3369999  95.3980026  66.5790024  28.9519997  96.0199966
  67.1039963  30.3020000  94.9440002  68.2910004  29.5240002  96.0550003
  67.2099991  25.6690006  92.7880020  68.3990021  25.3439999  92.8170013
  66.2519989  24.8110008  93.1999969  65.2939987  25.0860004  93.2040024
  66.5380020  23.4659996  93.6679993  67.2229996  23.5529995  94.4990005
  65.2419968  22.7929993  94.1930008  64.4589996  22.8689995  93.4089966
  64.8909988  23.3850002  95.0650024  65.3970032  21.3069992  94.6029968
  66.2610016  21.2110004  95.2939987  65.5920029  20.6700001  93.7139969
  64.1500015  20.7709999  95.3010025  64.2269974  20.4400005  96.5149994
  63.0800018  20.6590004  94.6429977  67.2310028  22.5660000  92.6429977
  68.2300034  21.9050007  92.9400024  66.7440033  22.5620003  91.3820038
  65.9189987  23.0790005  91.1660004  67.3960037  21.9039993  90.2669983
  67.5439987  20.8659992  90.5279999  66.4779968  21.9939995  89.0319977
  66.3000031  23.0520000  88.7440033  65.4940033  21.5300007  89.2590027
  66.9219971  21.4589996  88.1650009  68.7710037  22.4860001  89.9280014
  69.7509995  21.7700005  89.7070007  68.8619995  23.8269997  89.9049988
  68.0449982  24.3750000  90.0609970  70.0530014  24.5949993  89.6200027
  70.4000015  24.2980003  88.6409988  69.6460037  26.0809994  89.5749969
  69.1729965  26.3479996  90.5449982  68.8720016  26.2019997  88.7880020
  70.7649994  27.0939999  89.2990036  71.5220032  27.0340004  90.1100006
  71.4649963  26.8010006  87.9609985  70.7399979  26.8700008  87.1220016
  71.9169998  25.7859993  87.9589996  72.2799988  27.5340004  87.7789993
  70.1589966  28.5039997  89.3430023  69.6309967  28.6700001  90.3069992
  69.4349976  28.6420002  88.5120010  70.9540024  29.2740002  89.2490005
  71.2229996  24.3820000  90.5800018  72.3779984  24.2639999  90.1650009
  70.9509964  24.2959995  91.8970032  70.0159988  24.4419994  92.2119980
  71.9489975  24.1130009  92.9359970  72.6240005  24.9540005  92.8799973
  71.2549973  24.1469994  94.3249969  70.3980026  23.4410000  94.2949982
  70.8330002  25.1639996  94.4720001  72.1250000  23.7800007  95.5439987
  72.4759979  22.7299995  95.4550018  71.4830017  23.8260002  96.4489975
  73.3349991  24.7150002  95.7509995  72.9550018  25.7500000  95.8860016
  73.9629974  24.7010002  94.8349991  74.1940002  24.3110008  96.9619980
  74.5429993  23.2630005  96.8450012  73.5970001  24.3859997  97.8960037
  75.3909988  25.1849995  97.0979996  75.1139984  26.1770000  97.2409973
  75.9909973  25.1250000  96.2500000  75.9599991  24.8880005  97.9160004
  72.8219986  22.8649998  92.7789993  74.0449982  22.9150009  92.9300003
  72.2160034  21.7159996  92.4120026  71.2239990  21.6860008  92.3150024
  72.9309998  20.4860001  92.1080017  73.5189972  20.2210007  92.9749985
  71.9290009  19.3379993  91.8069992  72.4860001  18.4410000  91.4629974
  71.2570038  19.6499996  90.9789963  71.0609970  18.9200001  93.0220032
  70.3639984  18.1110001  92.7160034  70.4489975  19.7830009  93.3629990
  71.8929977  18.4060001  94.1940002  71.8399963  19.0119991  95.2979965
  72.5950012  17.3700008  94.0350037  73.9150009  20.6200008  90.9430008
  75.0650024  20.1819992  91.0169983  73.4879990  21.2840004  89.8440018
  72.5479965  21.6149998  89.8160019  74.3300018  21.6259995  88.7089996
  74.7829971  20.7099991  88.3580017  73.4449997  22.2040005  87.5619965
  72.8479996  23.0620003  87.9390030  72.7300034  21.4169998  87.2389984
  74.2440033  22.6369991  86.3310013  74.5739975  21.8230000  85.4639969
  74.5360031  23.9549999  86.2180023  75.0439987  24.2590008  85.4130020
  74.2529984  24.5979996  86.9290009  75.4909973  22.5550003  89.0810013
  76.6350021  22.3409996  88.6800003  75.2149963  23.5990009  89.8939972
  74.2699966  23.7530003  90.1729965  76.2119980  24.5590000  90.3639984
  75.6949997  25.2849998  90.9739990  76.6839981  25.0020008  89.4990005
  77.3010025  23.9580002  91.2190018  78.4800034  24.2779999  91.0660019
  76.9319992  23.0380001  92.1360016  75.9619980  22.8470001  92.2620010
  77.8789978  22.2940006  92.9660034  77.3040009  21.6779995  93.6409988
  78.5100021  23.0020008  93.4830017  78.7789993  21.3710003  92.1819992
  79.9869995  21.3080006  92.4110031  78.2119980  20.6389999  91.2030029
  77.2249985  20.6720009  91.0660019  78.9589996  19.8110008  90.2760010
  79.5360031  19.1040001  90.8529968  77.9749985  19.0410004  89.3740005
  77.3619995  19.7390003  88.7649994  77.2870026  18.4340000  90.0000000
  78.5179977  18.3540001  88.6900024  79.9469986  20.5990009  89.4150009
  81.1050034  20.2129993  89.2519989  79.5179977  21.7619991  88.8820038
  78.5630035  22.0259991  88.9869995  80.3560028  22.6860008  88.1399994
  80.7750015  22.1509991  87.3000031  79.4769974  23.8419991  87.5930023
  78.8929977  24.2639999  88.4380035  78.7429962  23.3990002  86.8850021
  80.2310028  24.9880009  86.8820038  80.8649979  24.5429993  86.0849991
  80.9120026  25.5090008  87.5889969  79.3050003  26.0209999  86.2190018
  78.6029968  25.4990005  85.5329971  79.8970032  26.7709999  85.6520004
  78.5500031  26.7180004  87.3119965  78.9140015  26.6930008  88.2429962
  77.4430008  27.4300003  87.1350021  76.8669968  27.9960003  88.1780014
  77.3050003  27.9449997  89.0759964  76.0500031  28.5580006  88.0469971
  76.8899994  27.6019993  85.9530029  77.3679962  27.2579994  85.1449966
  76.0849991  28.1879997  85.8639984  81.5400009  23.2299995  88.9369965
  82.6819992  23.2380009  88.4710007  81.3000031  23.6420002  90.2009964
  80.3649979  23.6770000  90.5439987  82.3379974  24.0419998  91.1350021
  82.8889999  24.8570004  90.6910019  81.6760025  24.5349998  92.4509964
  80.9499969  23.7660007  92.7900009  81.0950012  25.4519997  92.2170029
  82.6250000  24.8409996  93.6330032  83.1470032  23.9060001  93.9300003
  83.6869965  25.8859997  93.2610016  83.1930008  26.8290005  92.9430008
  84.3310013  25.5279999  92.4290009  84.3369980  26.1030006  94.1350021
  81.8170013  25.3169994  94.8509979  81.0709991  24.5489998  95.1460037
  81.2789993  26.2600002  94.6119995  82.4909973  25.5060005  95.7129974
  83.3519974  22.9410000  91.4390030  84.5660019  23.1499996  91.3769989
  82.8759995  21.7099991  91.7229996  81.8929977  21.5550003  91.7819977
  83.7210007  20.5590000  91.9619980  84.3830032  20.7989998  92.7809982
  82.8399963  19.3589993  92.3610001  82.1399994  19.0900002  91.5419998
  82.2379990  19.6149998  93.2580032  83.4629974  18.4710007  92.6029968
  84.5989990  20.1819992  90.7689972  85.7969971  19.9249992  90.9079971
  84.0159988  20.1840000  89.5530014  83.0380020  20.3560009  89.4729996
  84.7269974  19.9340000  88.3150024  85.1940002  18.9629993  88.3949966
  83.7269974  19.9069996  87.1309967  83.2389984  20.9029999  87.0569992
  82.9240036  19.1770000  87.3669968  84.3470001  19.5559998  85.7559967
  85.1480026  20.2819996  85.4990005  83.5650024  19.6270008  84.9700012
  84.9199982  18.1389999  85.7160034  86.1389999  17.9750004  85.4410019
  84.1510010  17.1630001  85.9359970  85.8379974  20.9480000  88.0289993
  86.9759979  20.5830002  87.7160034  85.5559998  22.2649994  88.1849976
  84.6340027  22.5629997  88.4209976  86.5759964  23.2929993  88.0500031
  87.0820007  23.0769997  87.1210022  85.9899979  24.7339993  87.9229965
  85.5000000  25.0429993  88.8710022  85.2470016  24.7730007  87.0979996
  87.1240005  25.6840000  87.5979996  87.7030029  26.5100002  88.5780029
  87.2480011  26.5900002  89.5550003  88.9349976  27.1359997  88.3349991
  89.3870010  27.7430000  89.1050034  89.5999985  26.9279995  87.1169968
  90.8990021  27.4470005  86.9000015  91.1190033  28.0200005  87.6389999
  87.7419968  25.5809994  86.3399963  87.3010025  24.9540005  85.5790024
  88.9869995  26.1779995  86.1080017  89.4869995  26.0330009  85.1610031
  87.6669998  23.2159996  89.1289978  88.8529968  23.3920002  88.8509979
  87.3010025  22.9270000  90.3970032  86.3349991  22.8360004  90.6250000
  88.2490005  22.8209991  91.4980011  88.7500000  23.7740002  91.5820007
  87.5130005  22.5400009  92.8349991  86.9779968  21.5680008  92.7839966
  86.7429962  23.3290005  92.9670029  89.0970001  21.4850006  94.5439987
  89.1679993  20.5809994  94.1240005  88.4000015  22.5720005  94.0540009
  89.6709976  21.8689995  95.7119980  90.2910004  21.2010002  96.3089981
  89.3769989  23.1229992  96.0169983  88.5690002  23.5629997  94.9749985
  88.1579971  24.5650005  94.9779968  89.3359985  21.7730007  91.2600021
  90.5199966  22.0049992  91.5149994  88.9649963  20.6019993  90.7030029
  87.9990005  20.4090004  90.5500031  89.9029999  19.6049995  90.2259979
  90.5260010  19.3129997  91.0579987  89.1119995  18.3770008  89.7379990
  88.4580002  18.6399994  88.8789978  88.4670029  17.9930000  90.5559998
  89.7979965  17.5599995  89.4250031  90.8430023  20.0919991  89.1119995
  92.0540009  19.8670006  89.1650009  90.3160019  20.8150005  88.0989990
  89.3339996  20.9860001  88.0790024  91.0920029  21.4419994  87.0350037
  91.6660004  20.6690006  86.5479965  90.1289978  22.0699997  85.9869995
  89.3949966  22.7070007  86.5240021  89.5520020  21.2460003  85.5139999
  90.7570038  22.9400005  84.8779984  91.2839966  23.8080006  85.3290024
  89.9189987  23.3500004  84.2740021  91.6890030  22.1459999  83.9430008
  91.1480026  21.2229996  83.6409988  92.5920029  21.8180008  84.5009995
  92.0960007  22.8710003  82.6449966  91.1930008  23.1860008  82.0800018
  92.6920013  22.1870003  82.0039978  92.9199982  24.0820007  82.9209976
  93.7450027  23.8279991  83.5019989  92.3669968  24.8050003  83.4229965
  93.2669983  24.4950008  82.0319977  92.1019974  22.4750004  87.5309982
  93.2730026  22.4729996  87.1419983  91.6790009  23.3570004  88.4580002
  90.7149963  23.3689995  88.7109985  92.5339966  24.3110008  89.1340027
  93.0059967  24.9270000  88.3830032  91.6770020  25.1970005  90.0589981
  91.1790009  24.5930004  90.8470001  90.8850021  25.7010002  89.4649963
  92.2979965  25.9799995  90.5449982  93.6419983  23.6590004  89.9570007
  94.8109970  24.0410004  89.8820038  93.2919998  22.6119995  90.7360001
  92.3290024  22.3610001  90.7949982  94.2340012  21.8220005  91.5299988
  94.7679977  22.5030003  92.1750031  93.5419998  20.7759991  92.4100037
  92.9440002  20.0820007  91.7819977  92.6729965  21.4080009  93.3460007
  91.9309998  21.7530003  92.8430023  94.5550003  19.9650002  93.2379990
  95.2099991  20.6439991  93.8239975  95.1920013  19.3220005  92.5940018
  94.0210037  19.2989998  93.9489975  95.2809982  21.1310005  90.6750031
  96.4789963  21.1819992  90.9609985  94.8610001  20.5049992  89.5569992
  93.8870010  20.4349995  89.3560028  95.7509995  19.9130001  88.5749969
  96.3750000  19.1989994  89.0920029  94.9329987  19.1429996  87.5059967
  94.1419983  19.8150005  87.1090012  94.4209976  18.3029995  88.0240021
  95.7630005  18.5960007  86.3180008  96.6480026  18.0520000  86.7119980
  96.1259995  19.4249992  85.6729965  94.9530029  17.6399994  85.4469986
  95.2959976  16.4270000  85.3939972  93.9720001  18.0860004  84.7929993
  96.7050018  20.9009991  87.9160004  97.9069977  20.6509991  87.7939987
  96.1999969  22.0869999  87.5159988  95.2190018  22.2549992  87.5790024
  97.0230026  23.1569996  86.9779968  97.5520020  22.7649994  86.1210022
  96.1490021  24.3490009  86.5179977  95.6429977  24.8110008  87.3929977
  95.3509979  23.9650002  85.8479996  96.9140015  25.6119995  84.4349976
  96.4329987  25.0590000  83.7539978  96.9410019  25.4130001  85.8000031
  97.6940002  26.6930008  84.1770020  97.8550034  27.0750008  83.1689987
  98.2170029  27.1989994  85.2779999  97.7289963  26.4050007  86.3030014
  97.9869995  26.6149998  87.3339996  98.0749969  23.6679993  87.9599991
  99.2529984  23.7929993  87.6259995  97.6829987  23.9190006  89.2259979
  96.7200012  23.8400002  89.4729996  98.5810013  24.3110008  90.2990036
  99.1039963  25.1959991  89.9700012  97.7570038  24.6669998  91.5619965
  97.1500015  23.7849998  91.8600006  97.0459976  25.4740009  91.2839966
  98.5660019  25.1459999  92.7880020  99.2229996  24.3169994  93.1279984
  99.4540024  26.3579998  92.4619980  98.8379974  27.1989994  92.0790024
 100.2139969  26.0960007  91.6949997  99.9889984  26.7000008  93.3740005
  97.6149979  25.4899998  93.9449997  96.9889984  24.6110001  94.2099991
  96.9430008  26.3260002  93.6549988  98.1920013  25.7980003  94.8430023
  99.6500015  23.2619991  90.6129990 100.8310013  23.5680008  90.7870026
  99.2590027  21.9710007  90.6419983  98.2890015  21.7549992  90.5599976
 100.1770020  20.8419991  90.7730026 100.7440033  20.9909992  91.6809998
  99.4449997  19.4750004  90.8769989 100.1900024  18.6539993  90.9440002
  98.8229980  19.3010006  89.9729996  98.6190033  19.4150009  92.0459976
  97.8799973  20.0109997  91.9000015 101.1930008  20.7369995  89.6399994
 102.3759995  20.4820004  89.8600006 100.7539978  20.9470005  88.3799973
  99.7789993  21.0869999  88.2229996 101.6350021  21.0349998  87.2099991
 102.2310028  20.1350002  87.1760025 100.8580017  21.1439991  85.8939972
 100.1930008  22.0330009  85.9120026 100.0599976  19.9799995  85.6869965
  99.3669968  19.9869995  86.3499985 101.8000031  21.2509995  84.6790009
 102.5130005  20.3999996  84.6650009 102.3759995  22.2000008  84.6880035
 101.2119980  21.2299995  83.7360001 102.6119995  22.2019997  87.2929993
 103.8099976  22.0769997  87.0319977 102.1039963  23.3759995  87.6989975
 101.1269989  23.4510002  87.8850021 102.8199997  24.6219997  87.8339996
 103.2340012  24.8689995  86.8679962 101.7789993  25.7010002  88.2030029
 101.1100006  25.2740002  88.9810028 101.1470032  25.9009991  87.3109970
 102.3050003  27.0340004  88.7600021 102.8659973  26.8400002  89.6989975
 103.2500000  27.7369995  87.7710037 102.6829987  28.0839996  86.8809967
 104.0690002  27.0739994  87.4189987 103.7200012  28.6159992  88.2620010
 101.0999985  27.9130001  89.1340027 100.4130020  27.3670006  89.8160019
 100.5370026  28.1989994  88.2200012 101.4319992  28.8419991  89.6439972
 104.0000000  24.6369991  88.8069992 105.0640030  25.1770000  88.4980011
 103.8740005  24.0319996  90.0070038 103.0199966  23.5830002  90.2590027
 104.9110031  24.0879993  91.0390015 105.0690002  25.1350002  91.2519989
 104.4820023  23.4260006  92.3830032 103.6029968  23.9909992  92.7610016
 105.2860031  23.5259991  93.1439972 104.0930023  22.0529995  92.2409973
 104.8889999  21.5219994  92.1610031 106.2699966  23.5520000  90.5979996
 107.3190002  24.1000004  90.9420013 106.2710037  22.4810009  89.7779999
 105.4010010  22.0520000  89.5490036 107.4459991  21.9519997  89.1090012
 108.1669998  21.6910000  89.8700027 107.0459976  20.6650009  88.3399963
 106.2770004  20.9319992  87.5839996 106.5609970  19.9720001  89.0599976
 108.1979980  19.9190006  87.6200027 108.6949997  20.5839996  86.8830032
 107.7750015  19.0559998  87.0619965 109.2389984  19.3700008  88.5940018
 108.8700027  18.5639992  89.4909973 110.4449997  19.7089996  88.4580002
 108.1370010  22.9419994  88.1600037 109.3610001  23.0699997  88.1610031
 107.3649979  23.6889992  87.3330002 106.3730011  23.5960007  87.3809967
 107.8669968  24.7010002  86.4059982 108.5999985  24.2320004  85.7669983
 106.6829987  25.2329998  85.5390015 106.0299988  25.8929996  86.1490021
 106.0670013  24.3500004  85.2649994 107.0299988  25.9500008  84.2080002
 106.0660019  26.2040005  83.7180023 107.5609970  25.2380009  83.5410004
 107.8809967  27.2329998  84.3190002 108.9260025  26.9190006  84.5260010
 107.5110016  27.8360004  85.1760025 107.8840027  28.1030006  83.0490036
 106.8830032  28.5590000  82.8919983 108.1389999  27.4860001  82.1610031
 108.8960037  29.1970005  83.1650009 109.8570023  28.8069992  83.2330017
 108.7269974  29.7700005  84.0159988 108.8610001  29.8239994  82.3359985
 108.5449982  25.8799992  87.1169968 109.6289978  26.3239994  86.7369995
 107.9160004  26.4190006  88.1829987 107.0459976  26.0340004  88.4800034
 108.3600006  27.6229992  88.8669968 108.3939972  28.4150009  88.1340027
 107.3160019  27.9950008  89.9380035 107.2450027  27.2040005  90.7160034
 106.3150024  28.1079998  89.4680023 107.5759964  28.9570007  90.4290009
 109.7539978  27.5590000  89.5049973 110.5550003  28.4909992  89.4079971
 110.0690002  26.4330006  90.1709976 109.3980026  25.6959991  90.2050018
 111.2969971  26.2119999  90.9150009 111.3359985  26.9899998  91.6640015
 111.1470032  24.8750000  91.6880035 110.7610016  24.1079998  90.9820023
 110.3629990  25.0189991  92.4619980 112.4110031  24.3040009  92.3489990
 112.8499985  25.0680008  93.0250015 113.1679993  24.0520000  91.5759964
 112.0800018  23.0319996  93.1529999 111.5950012  22.3059998  92.4660034
 111.3410034  23.2999992  93.9380035 113.3089981  22.3780003  93.8030014
 113.7910004  23.0860004  94.5120010 114.0469971  22.0900002  93.0240021
 112.9189987  21.1569996  94.5530014 112.4800034  20.4599991  93.9179993
 112.2389984  21.3889999  95.3050003 113.7519989  20.7169991  94.9919968
 112.6569977  26.3190002  90.1910019 113.5360031  27.0030003  90.7289963
 112.9349976  25.7539997  89.0049973 112.1269989  24.7049999  88.3880005
 111.0609970  25.0030003  88.2890015 112.2050018  23.7779999  88.9960022
 114.2740021  25.7849998  88.4179993 114.9940033  25.5419998  89.1849976
 114.2480011  24.7150002  87.3079987 114.6740036  23.7730007  87.7160034
 114.8229980  24.9950008  86.4000015 112.7620010  24.5000000  87.0159988
 112.3939972  25.2830009  86.3190002 112.5449982  23.4969997  86.5910034
 114.6480026  27.1550007  87.8860016 115.8349991  27.4829998  87.8740005
 113.6819992  27.9689999  87.4130020 112.7340012  27.6580009  87.3990021
 113.9430008  29.3230000  86.9589996 114.6689987  29.2749996  86.1610031
 112.6370010  29.9410000  86.4229965 111.8659973  29.9990005  87.2200012
 112.2340012  29.3169994  85.5970001 112.8170013  30.9640007  86.0270004
 114.5309982  30.2189999  88.0540009 115.5169983  30.9279995  87.8489990
 113.9609985  30.1499996  89.2750015 113.1470032  29.5890007  89.4049988
 114.4830017  30.7950001  90.4670029 114.6169968  31.8409996  90.2340012
 113.4800034  30.6809998  91.6449966 113.9049988  31.1860008  92.5390015
 113.3339996  29.6089993  91.8960037 112.0930023  31.3090000  91.3659973
 111.6460037  30.8040009  90.4830017 111.1399994  31.0739994  92.5490036
 111.5339966  31.5629997  93.4660034 111.0250015  29.9869995  92.7460022
 110.1380005  31.4990005  92.3270035 112.1829987  32.8110008  91.0510025
 112.7809982  32.9910011  90.1320038 112.6569977  33.3569984  91.8949966
 111.1669998  33.2309990  90.8880005 115.8639984  30.2849998  90.8870010
 116.7480011  31.0559998  91.2669983 116.1009979  28.9589996  90.8069992
 115.3649979  28.3349991  90.5559998 117.4110031  28.3700008  91.0380020
 117.7320023  28.6840000  92.0210037 117.3099976  26.8239994  91.0599976
 116.8560028  26.4799995  90.1060028 116.6110001  26.5480003  91.8779984
 118.6589966  26.0919991  91.2590027 119.1790009  26.5279999  92.1389999
 119.3140030  26.2220001  90.3710022 118.4700012  24.5960007  91.4960022
 118.7760010  24.1140003  92.6210022 118.0299988  23.8770008  90.5589981
 118.5049973  28.8400002  90.0690002 119.6100006  29.2040005  90.4810028
 118.2009964  28.9029999  88.7509995 117.3239975  28.5510006  88.4329987
 119.0670013  29.4699993  87.7279968 120.0059967  28.9370003  87.7570038
 118.3960037  29.2759991  86.3349991 117.3960037  29.7600002  86.3330002
 118.2490005  28.1900005  86.1520004 119.2340012  29.8500004  85.1969986
 118.7470016  30.7609997  84.4729996 120.3919983  29.3889999  85.0149994
 119.3820038  30.9519997  87.9739990 120.5270004  31.4050007  87.9049988
 118.3420029  31.7320004  88.3180008 117.4240036  31.3449993  88.3310013
 118.4209976  33.1370010  88.6389999 118.7949982  33.6689987  87.7770004
 116.9820023  33.6040001  88.9520035 116.5120010  32.8359985  89.6019974
 116.3980026  33.6180000  88.0070038 116.8089981  34.9510002  89.6719971
 117.4100037  34.9729996  90.6060028 117.2809982  36.1110001  88.7809982
 116.7050018  36.1339989  87.8320007 118.3590012  36.0060005  88.5350037
 117.1409988  37.0820007  89.3010025 115.3430023  35.0709991  90.1159973
 115.0830002  34.2579994  90.8280029 114.6650009  34.9959984  89.2389984
 115.1650009  36.0460014  90.6179962 119.3499985  33.4739990  89.7990036
 120.1869965  34.3730011  89.6999969 119.2580032  32.7229996  90.9189987
 118.5559998  32.0180016  90.9860001 120.0820007  32.9420013  92.0910034
 119.9240036  33.9669991  92.3919983 119.6289978  32.0099983  93.2450027
 119.7030029  30.9549999  92.9049988 118.5540009  32.2109985  93.4410019
 120.4130020  32.1619987  94.5690002 121.4670029  31.8460007  94.4150009
 119.9629974  31.4659996  95.3089981 120.3860016  33.5870018  95.1419983
 119.3379974  33.9070015  95.3270035 120.8830032  34.2970009  94.4459991
 121.1350021  33.5600014  96.4380035 121.4670029  32.6879997  96.7969971
 121.3880005  34.6339989  97.1770020 122.0530014  34.4920006  98.3059998
 122.3489990  33.5820007  98.5979996 122.2389984  35.2910004  98.8779984
 120.9960022  35.8429985  96.8349991 120.4619980  35.9700012  95.9990005
 121.1900024  36.6150017  97.4410019 121.5800018  32.7989998  91.8239975
 122.3909988  33.6220016  92.2509995 121.9769974  31.7609997  91.0569992
 121.3069992  31.0860004  90.7559967 123.3270035  31.6110001  90.5439987
 123.9970016  31.6459999  91.3909988 123.4789963  30.2329998  89.8450012
 122.7310028  30.1669998  89.0260010 123.2139969  29.4480000  90.5849991
 124.8759995  29.9060001  89.2539978 125.1370010  30.6159992  88.4400024
 124.8430023  28.8899994  88.8050003 125.9929962  29.8999996  90.3040009
 126.3310013  28.8589993  90.8759995 126.6019974  31.0790005  90.5660019
 127.3479996  31.0949993  91.2310028 126.2600021  31.9150009  90.1360016
 123.7620010  32.7319984  89.5940018 124.8889999  33.2229996  89.6620026
 122.8700027  33.1619987  88.6760025 121.9660034  32.7430000  88.6549988
 123.1610031  34.1380005  87.6289978 122.2779999  34.2050018  87.0110016
 124.0159988  33.7789993  87.0749969 123.4850006  35.5509987  88.0699997
 124.3759995  36.1889992  87.5100021 122.7620010  36.0970001  89.0690002
 122.0120010  35.5820007  89.4759979 122.9729996  37.4550018  89.5609970
 122.8809967  38.1209984  88.7160034 121.9020004  37.8400002  90.6200027
 122.1399994  38.8359985  91.0520020 121.9349976  37.0970001  91.4449997
 120.4509964  37.9199982  90.0930023 120.1969986  36.9510002  89.6110001
 119.4599991  38.1310005  91.2490005 119.6790009  39.0830002  91.7770004
 119.5260010  37.2949982  91.9789963 118.4199982  38.1790009  90.8619995
 120.2710037  39.0279999  89.0439987 120.9089966  38.8440018  88.1529999
 120.5329971  40.0169983  89.4759979 119.2109985  39.0649986  88.7109985
 124.3550034  37.7379990  90.1610031 124.9690018  38.7770004  89.9029999
 124.8710022  36.8129997  90.9950027 124.3820038  35.9570007  91.1409988
 126.0609970  37.0200005  91.8069992 125.8750000  37.9329987  92.3519974
 126.2229996  35.9140015  92.8860016 127.0989990  36.1570015  93.5250015
 126.4209976  34.9339981  92.4020004 124.9980011  35.7400017  93.8190002
 124.1169968  35.4700012  93.1989975 125.2269974  34.5810013  94.8020020
 126.0960007  34.7970009  95.4599991 125.4250031  33.6370010  94.2500000
 124.3300018  34.4329987  95.4390030 124.6529999  37.0239983  94.5920029
 124.3639984  37.8409996  93.8980026 125.5250015  37.3590012  95.1940002
 123.8010025  36.8390007  95.2799988 127.3789978  37.3139992  91.0709991
 128.0839996  38.2179985  91.5289993 127.7870026  36.6959991  89.9530029
 127.3180008  35.3759995  89.5210037 126.5159988  35.5169983  88.7659988
 126.9349976  34.7560005  90.3600006 129.0520020  37.0429993  89.3040009
 129.8300018  37.0639992  90.0530014 129.2700043  35.9239998  88.2699966
 130.3500061  35.7239990  88.1009979 128.7910004  36.1660004  87.2969971
 128.5429993  34.7249985  88.8809967 128.2720032  33.9539986  88.1289978
 129.1750031  34.2649994  89.6709976 129.0000000  38.4049988  88.6419983
 129.9949951  39.1300011  88.6630020 127.8570023  38.7739983  88.0299988
 127.0869980  38.1419983  88.0080032 127.6340027  40.0929985  87.4550018
 128.4239960  40.2820015  86.7429962 126.2929993  40.1599998  86.7259979
 125.4589996  39.9930000  87.4400024 126.1139984  41.5400009  86.0619965
 126.9769974  41.7639999  85.3990021 126.0250015  42.3499985  86.8160019
 125.1900024  41.5480003  85.4440002 126.2399979  39.0499992  85.6569977
 126.2269974  38.0369987  86.1139984 127.1159973  39.1230011  84.9779968
 125.3180008  39.1520004  85.0459976 127.7119980  41.1889992  88.5159988
 128.3979950  42.2019997  88.3539963 127.0579987  40.9599991  89.6750031
 126.4869995  40.1469994  89.7630005 127.1139984  41.8190002  90.8420029
 126.7590027  42.7999992  90.5609970 126.1839981  41.2179985  91.9270020
 126.5429993  40.1920013  92.1549988 125.1660004  41.1020012  91.4980011
 126.0759964  41.9980011  93.2549973 126.9150009  42.7229996  93.3349991
 124.7659988  42.7960014  93.3199997 123.8949966  42.1080017  93.2750015
 124.6969986  43.5060005  92.4680023 124.7060013  43.3730011  94.2669983
 126.1809998  41.0379982  94.4499969 127.1559982  40.5050011  94.4339981
 125.3669968  40.2830009  94.4110031 126.0989990  41.5940018  95.4089966
 128.5269928  41.9830017  91.4020004 128.9949951  43.0960007  91.6480026
 129.2709961  40.8680000  91.5599976 128.8639984  39.9720001  91.4020004
 130.6600037  40.8709984  91.9779968 130.7120056  41.3899994  92.9240036
 131.1589966  39.4199982  92.2030029 130.9250031  38.8209991  91.2979965
 130.5679932  38.9930000  93.0410004 132.6730042  39.2869987  92.5029984
 132.9519958  39.9640007  93.3389969 133.2669983  39.5789986  91.6110001
 133.0599976  37.8639984  92.9000015 133.8170013  37.2029991  92.1380005
 132.6309967  37.3930016  93.9889984 131.5910034  41.6220016  91.0339966
 132.4210052  42.4290009  91.4550018 131.4329987  41.4160004  89.7109985
 130.7740021  40.7350006  89.4010010 132.1840057  42.1320000  88.6859970
 133.2339935  41.9599991  88.8740005 131.8670044  41.6580009  87.2419968
 132.5099945  42.2260017  86.5370026 130.8029938  41.8530006  86.9889984
 132.1589966  40.2690010  87.0609970 131.5520020  39.7709999  87.6129990
 131.9689941  43.6380005  88.7259979 132.9199982  44.4189987  88.6389999
 130.7079926  44.0870018  88.9039993 129.9400024  43.4510002  88.9130020
 130.3849945  45.4840012  89.1230011 130.8079987  46.0379982  88.2990036
 128.8430023  45.7000008  89.0970001 128.3580017  45.0519981  89.8580017
 128.4479980  45.4150009  88.0979996 128.4700012  47.1389999  89.3659973
 128.6470032  48.1110001  88.3659973 129.0269928  47.8190002  87.3990021
 128.3520050  49.4570007  88.6220016 128.4819946  50.1980019  87.8470001
 127.8850021  49.8419991  89.8840027 127.6539993  50.8779984  90.0820007
 127.9810028  47.5349998  90.6250000 127.8470001  46.7980003  91.4029999
 127.7009964  48.8829994  90.8880005 127.3379974  49.1829987  91.8590012
 131.0249939  46.0620003  90.3929977 131.6190033  47.1399994  90.3730011
 130.9680023  45.3269997  91.5230026 130.4479980  44.4760017  91.5380020
 131.6239929  45.7029991  92.7610016 131.2619934  46.6879997  93.0179977
 131.2209930  44.7599983  93.9189987 131.8880005  44.9189987  94.7929993
 131.3410034  43.7050018  93.5910034 129.7760010  44.9980011  94.3960037
 129.0820007  44.9169998  93.5329971 129.7100067  46.0369987  94.7839966
 129.3520050  43.9860001  95.4779968 130.0820007  44.0110016  96.3150024
 129.4140015  42.9720001  95.0279999 127.9229965  44.1660004  96.0240021
 127.6699982  43.3160019  96.6920013 127.1900024  44.1930008  95.1890030
 127.7890015  45.4220009  96.8089981 127.9260025  46.2599983  96.2080002
 128.4889984  45.4490013  97.5780029 126.8420029  45.4830017  97.2340012
 133.1419983  45.8489990  92.6679993 133.7180023  46.8129997  93.1709976
 133.8289948  44.9220009  91.9680023 133.3589935  44.1059990  91.6389999
 135.2400055  45.0480003  91.6220016 135.7920074  45.1819992  92.5400009
 135.7579956  43.7799988  90.9410019 135.0709991  43.4980011  90.1139984
 137.1750031  43.9739990  90.3590012 137.8690033  44.3460007  91.1429977
 137.1799927  44.6879997  89.5080032 137.5650024  43.0040016  89.9840012
 135.7819977  42.6399994  91.9779968 134.7720032  42.4480019  92.3990021
 136.4680023  42.8899994  92.8140030 136.1390076  41.7010002  91.5039978
 135.5310059  46.2830009  90.7669983 136.4730072  47.0359993  91.0260010
 134.6940002  46.5589981  89.7440033 133.9550018  45.9259987  89.5260010
 134.7969971  47.7690010  88.9359970 135.8049927  47.8069992  88.5490036
 133.8099976  47.7519989  87.7369995 132.7579956  47.8209991  88.0879974
 133.9219971  46.7770004  87.2160034 134.0890045  48.7910004  86.7910004
 133.8619995  49.6370010  87.1849976 134.6130066  49.0559998  89.7369995
 135.3939972  50.0000000  89.6090012 133.6089935  49.1049995  90.6350021
 132.9470062  48.3600006  90.6800003 133.4230042  50.1829987  91.5859985
 133.3560028  51.0970001  91.0159988 132.0769958  50.0029984  92.3529968
 132.0319977  48.9640007  92.7440033 131.2279968  50.1430016  91.6500015
 131.8840027  50.9599991  93.5120010 132.0630035  52.3450012  93.3369980
 132.3390045  52.7309990  92.3669968 131.8840027  53.2309990  94.4079971
 132.0209961  54.2919998  94.2590027 131.5189972  52.7400017  95.6669998
 131.3739929  53.4220009  96.4909973 131.5160065  50.4809990  94.7819977
 131.3739929  49.4210014  94.9329987 131.3350067  51.3639984  95.8550034
 131.0540009  50.9840012  96.8259964 134.6100006  50.3730011  92.5370026
 135.0789948  51.4889984  92.7470016 135.1660004  49.2820015  93.1009979
 134.7449951  48.3860016  92.9779968 136.3569946  49.3289986  93.9270020
 136.1510010  50.0050011  94.7440033 136.6540070  47.9220009  94.5029984
 136.7740021  47.2060013  93.6610031 135.7649994  47.5970001  95.0849991
 137.8959961  47.8129997  95.4140015 138.7989960  48.0789986  94.8239975
 137.8139954  48.7680016  96.6169968 136.9080048  48.5499992  97.2220001
 137.7709961  49.8260002  96.2819977 138.7079926  48.6459999  97.2649994
 138.0729980  46.3660011  95.8980026 138.1660004  45.6749992  95.0329971
 137.1990051  46.0519981  96.5070038 138.9880066  46.2750015  96.5220032
 137.5829926  49.8829994  93.1969986 138.3170013  50.7260017  93.7149963
 137.8049927  49.4560013  91.9359970 137.2299957  48.7330017  91.5609970
 138.8289948  50.0159988  91.0630035 139.7799988  49.9080009  91.5630035
 138.8939972  49.2400017  89.7160034 137.9320068  49.3510017  89.1709976
 139.0260010  48.1609993  89.9469986 139.9739990  49.6769981  88.8840027
 140.0359955  49.0569992  88.1529999 138.6340027  51.5110016  90.7860031
 139.5639954  52.3129997  90.9010010 137.3910065  51.9399986  90.4820023
 136.6470032  51.2890015  90.3539963 137.0330048  53.3370018  90.3550034
 137.6719971  53.7709999  89.5989990 135.5709991  53.4529991  89.8909988
 134.8769989  53.0349998  90.6500015 135.4250031  52.8950005  88.9410019
 135.3029938  54.5169983  89.7139969 137.2409973  54.1590004  91.6340027
 137.8139954  55.2480011  91.6090012 136.8320007  53.6259995  92.8000031
 136.3179932  52.7719994  92.7910004 137.0449982  54.2089996  94.1090012
 136.5980072  55.1920013  94.0970001 136.3339996  53.3419991  95.1770020
 136.7480011  52.3120003  95.1389999 135.2599945  53.2709999  94.8980026
 136.4179993  53.8489990  96.6309967 137.4839935  53.8790016  96.9390030
 135.8350067  55.2630005  96.7789993 134.7740021  55.2809982  96.4479980
 136.4089966  55.9939995  96.1699982 135.8769989  55.5880013  97.8410034
 135.6909943  52.8730011  97.5690002 136.1349945  51.8580017  97.4960022
 134.6150055  52.8069992  97.2990036 135.7680054  53.2169991  98.6230011
 138.5200043  54.4039993  94.4550018 138.9380035  55.4529991  94.9560013
 139.3679962  53.4039993  94.1389999 139.0090027  52.5369987  93.8030014
 140.8099976  53.5250015  94.1959991 141.0670013  53.8139992  95.2050018
 141.4969940  52.1629982  93.9130020 141.0809937  51.7420006  92.9729996
 141.2140045  51.4720001  94.7360001 143.0399933  52.2319984  93.7860031
 143.4649963  52.7490005  94.6729965 143.3229980  52.8100014  92.8809967
 143.6840057  50.8489990  93.6969986 144.3179932  50.5400009  92.6510010
 143.5899963  50.0639992  94.6790009 141.3780060  54.6209984  93.2939987
 142.2279968  55.4049988  93.7139969 140.8849945  54.7430000  92.0439987
 140.2220001  54.0789986  91.7070007 141.2420044  55.8120003  91.1240005
 142.3139954  55.7809982  90.9960022 140.5690002  55.5699997  89.7490005
 139.4759979  55.7589989  89.8010025 140.6920013  54.4869995  89.5309982
 141.1889954  56.3320007  88.5490036 140.8619995  55.8199997  87.6190033
 142.2969971  56.2709999  88.5950012 140.7579956  57.7949982  88.4049988
 141.6519928  58.6780014  88.2919998 139.5279999  58.0750008  88.3440018
 140.8840027  57.2019997  91.6669998 141.7030029  58.1230011  91.6350021
 139.6790009  57.3730011  92.2620010 139.0010071  56.6430016  92.2170029
 139.2749939  58.6059990  92.9290009 139.3390045  59.4070015  92.2080002
 137.8300018  58.5340004  93.5210037 137.5339966  59.5270004  93.9229965
 137.8099976  57.7980003  94.3529968 136.7590027  58.1240005  92.5400009
 135.6179962  57.4570007  93.0270004 135.5200043  57.2690010  94.0859985
 134.6260071  56.9970016  92.1510010 133.7700043  56.4609985  92.5339966
 134.7519989  57.2239990  90.7770004 133.7700043  56.7290001  89.8929977
 133.9649963  57.0509987  89.0110016 136.8480072  58.3849983  91.1600037
 137.7019958  58.9080009  90.7570038 135.8540039  57.9319992  90.2809982
 135.9539948  58.1170006  89.2220001 140.2019958  58.9739990  94.0879974
 140.6479950  60.1150017  94.2180023 140.5480042  57.9830017  94.9369965
 140.1430054  57.0810013  94.8040009 141.5030060  58.1320000  96.0350037
 141.1649933  58.9490013  96.6549988 141.5939941  56.8779984  96.9100037
 141.8529968  55.9949989  96.2880020 140.3489990  56.6339989  97.5630035
 139.7169952  56.3790016  96.8870010 142.6459961  57.0320015  98.0240021
 142.4589996  57.9560013  98.6110001 143.6759949  57.0740013  97.6090012
 142.6029968  56.1640015  98.7160034 142.8939972  58.5070000  95.5530014
 143.5350037  59.4199982  96.0729980 143.3849945  57.8349991  94.4950027
 142.8670044  57.0769997  94.1060028 144.6540070  58.1139984  93.8560028
 145.4250031  58.0340004  94.6080017 144.9149933  57.0309982  92.7750015
 144.0570068  57.0159988  92.0699997 144.9239960  56.0530014  93.3010025
 146.2079926  57.1969986  91.9580002 147.0749969  57.2509995  92.6510010
 146.1719971  58.1539993  91.3960037 146.4389954  56.0559998  90.9400024
 147.3549957  56.3069992  90.3629990 145.5870056  56.0470009  90.2269974
 146.6009979  54.6590004  91.5690002 145.6620026  54.3419991  92.0709991
 147.4210052  54.6739998  92.3180008 146.9349976  53.6389999  90.5370026
 147.8339996  53.8709984  90.0680008 146.1900024  53.5820007  89.8140030
 147.0330048  52.7010002  90.9749985 144.7579956  59.5250015  93.2799988
 145.7290039  60.2410011  93.5260010 143.7129974  59.9949989  92.5660019
 142.9559937  59.3889999  92.3310013 143.6069946  61.3699989  92.1100006
 144.4739990  61.5859985  91.5029984 142.3379974  61.5550003  91.2360001
 141.4589996  61.1910019  91.8109970 142.4420013  60.9000015  90.3450012
 142.0839996  63.0019989  90.7669983 143.0059967  63.3750000  90.2730026
 141.8820038  63.6629982  91.6370010 140.9120026  63.1349983  89.7699966
 141.1340027  62.5040016  88.8840027 140.8820038  64.1930008  89.4309998
 139.5410004  62.7459984  90.3499985 139.3309937  63.3429985  91.2639999
 139.5180054  61.6669998  90.6139984 138.4550018  63.0070000  89.3659973
 138.6000061  62.4469986  88.5009995 138.4290009  64.0130005  89.1050034
 137.5290070  62.7540016  89.7659988 143.6000061  62.3930016  93.2419968
 144.3269958  63.3880005  93.2149963 142.8040009  62.1320000  94.3000031
 142.2089996  61.3320007  94.2870026 142.7129974  62.9630013  95.4860001
 142.4199982  63.9510002  95.1630020 141.6219940  62.3940010  96.4290009
 141.8800049  61.3419991  96.6780014 140.6629944  62.3720016  95.8690033
 141.3930054  63.1570015  97.7519989 142.3370056  63.1549988  98.3369980
 140.9799957  64.6159973  97.5090027 140.0449982  64.6589966  96.9100037
 141.7749939  65.1689987  96.9649963 140.8000031  65.1309967  98.4769974
 140.3300018  62.4410019  98.5979996 140.6410065  61.3950005  98.8109970
 139.3580017  62.4179993  98.0599976 140.1849976  62.9679985  99.5650024
 144.0399933  63.1139984  96.2269974 144.4270020  64.2119980  96.6289978
 144.7949982  62.0070000  96.3919983 144.4219971  61.1189995  96.1370010
 146.1510010  62.0270004  96.9169998 146.1269989  62.5260010  97.8740005
 146.6950073  60.5820007  97.0960007 147.7680054  60.6059990  97.3820038
 146.5919952  60.0219994  96.1409988 145.9490051  59.8400002  98.2040024
 145.2109985  60.4010010  99.0179977 146.1549988  58.5009995  98.2549973
 145.7019958  57.9790001  98.9769974 146.7740021  58.0620003  97.6039963
 147.1380005  62.8230019  96.0530014 147.9389954  63.6080017  96.5640030
 147.1049957  62.6399994  94.7170029 146.4960022  61.9580002  94.3199997
 147.9730072  63.3470001  93.7750015 148.9880066  63.1910019  94.1100006
 147.8849945  62.7690010  92.3590012 146.8179932  62.6710014  92.0670013
 148.5099945  61.4869995  92.3280029 148.2769928  61.0859985  91.4869995
 148.6230011  63.6259995  91.3160019 149.6730042  63.8069992  91.6320038
 148.1199951  64.6060028  91.1650009 148.6399994  63.1139984  90.3310013
 147.8040009  64.8619995  93.7350006 148.7910004  65.6029968  93.7710037
 146.5559998  65.3710022  93.6999969 145.7619934  64.7679977  93.7080002
 146.2779999  66.7969971  93.6220016 146.8820038  67.1940002  92.8190002
 144.7890015  67.0800018  93.2819977 144.6219940  68.1770020  93.3300018
 144.1540070  66.6110001  94.0630035 144.3209991  66.5869980  91.8889999
 143.2700043  66.9079971  91.7259979 144.3450012  65.4779968  91.8470001
 145.1679993  67.1750031  90.7559967 145.1269989  68.3789978  90.4810028
 145.9519958  66.3180008  90.0609970 145.9120026  65.3359985  90.2440033
 146.5390015  66.6880035  89.3399963 146.6620026  67.5910034  94.9079971
 147.4669952  68.5630035  94.7990036 146.1979980  67.2580032  96.0279999
 114.5520020  25.0279999  76.2770004 114.0719986  25.9410000  76.4069977
 115.3000031  25.1720009  75.5690002 115.0179977  24.7749996  77.1719971
 113.6119995  23.9220009  75.8430023 113.2779999  24.1679993  74.8450012
 114.3720016  22.5499992  75.7809982 115.1039963  22.5990009  74.9459991
 113.6689987  21.7240009  75.5419998 115.0879974  22.2539997  76.9929962
 115.5680008  21.4330006  76.8590012 112.3369980  23.7570000  76.6610031
 111.2340012  24.0009995  76.1740036 112.4449997  23.3209991  77.9359970
 113.3430023  23.1469994  78.3320007 111.3359985  22.9090004  78.8010025
 110.8349991  22.0919991  78.3050003 111.8050003  22.3920002  80.1630020
 110.9599991  22.2779999  80.8750000 112.8079987  23.2430000  80.7180023
 112.9749985  22.9370003  81.6119995 112.4459991  21.0090008  79.9599991
 113.3219986  21.0699997  79.2789993 111.7099991  20.2999992  79.5230026
 112.7890015  20.5930004  80.9309998 110.2620010  23.9489994  79.0370026
 109.0739975  23.6389999  78.9879990 110.6350021  25.2229996  79.2689972
 111.6029968  25.4410000  79.3610001 109.6910019  26.3139992  79.4680023
 109.0469971  26.0489998  80.2939987 110.4449997  27.6410007  79.7819977
 109.7220001  28.4710007  79.9300003 111.0970001  27.8980007  78.9199982
 111.3219986  27.5930004  81.0159988 111.1289978  26.6819992  82.0759964
 110.3440018  25.9410000  82.0319977 111.9570007  26.7099991  83.2060013
 111.8030014  26.0020008  84.0070038 112.9889984  27.6520004  83.2949982
 113.6309967  27.6690006  84.1630020 112.3580017  28.5380001  81.1289978
 112.5159988  29.2509995  80.3330002 113.1890030  28.5680008  82.2559967
 113.9840012  29.2959995  82.3229980 108.7639999  26.5429993  78.2750015
 107.5469971  26.6650009  78.4229965 109.3239975  26.5459995  77.0459976
 110.3130035  26.4549999  76.9629974 108.5559998  26.5939999  75.8020020
 107.9010010  27.4510002  75.8550034 109.4430008  26.7500000  74.5350037
 108.8140030  26.6800003  73.6220016 110.1979980  25.9360008  74.4919968
 110.0940018  28.0259991  74.5110016 110.7610016  28.0330009  75.2009964
 107.6589966  25.3859997  75.5979996 106.4980011  25.5090008  75.2099991
 108.1780014  24.1730003  75.8820038 109.1299973  24.1019993  76.1689987
 107.4380035  22.9249992  75.7850037 107.0709991  22.8299999  74.7740021
 108.4020004  21.7509995  76.0950012 108.7440033  21.8260002  77.1490021
 109.3020020  21.8659992  75.4540024 107.8229980  20.3449993  75.8600006
 107.6090012  20.2299995  74.7750015 106.8619995  20.2290001  76.4059982
 108.7969971  19.2530003  76.3460007 108.9929962  19.4360008  77.4240036
 109.7699966  19.3630009  75.8209991 108.2880020  17.8059998  76.2170029
 107.2890015  17.7029991  76.6920013 108.9950027  17.1149998  76.7229996
 108.1809998  17.3899994  74.7939987 109.0970001  17.4979992  74.3130035
 107.4720001  17.9580002  74.2870026 107.9010010  16.3910007  74.7320023
 106.2269974  22.8649998  76.7170029 105.1200027  22.5049992  76.3209991
 106.3980026  23.2630005  77.9929962 107.3099976  23.5009995  78.3190002
 105.3199997  23.4050007  78.9580002 104.7760010  22.4729996  78.9810028
 105.8919983  23.6580009  80.3750000 105.0859985  23.9540005  81.0800018
 106.6159973  24.4990005  80.3140030 106.6050034  22.4200001  80.9700012
 107.2720032  21.9860001  80.1949997 107.4889984  22.8059998  82.1640015
 106.8600006  23.2049999  82.9889984 108.2310028  23.5769997  81.8659973
 108.0360031  21.9160004  82.5419998 105.6019974  21.3409996  81.4069977
 104.9759979  21.0000000  80.5550003 104.9300003  21.7399998  82.1979980
 106.1399994  20.4610004  81.8199997 104.2850037  24.4559994  78.5729980
 103.0810013  24.2150002  78.6500015 104.7300034  25.6329994  78.0820007
 105.7080002  25.8269997  78.0670013 103.8649979  26.6760006  77.5530014
 103.1760025  26.9510002  78.3369980 104.7220001  27.9190006  77.1920013
 105.5250015  27.5879993  76.4990005 105.2259979  28.2660007  78.1190033
 104.0100021  29.1259995  76.5309982 103.5500031  28.8409996  75.5609970
 104.8099976  29.8560009  76.2860031 103.0000000  29.8780003  77.4160004
 102.8489990  30.9020004  77.0110016 103.3679962  29.9410000  78.4619980
 101.6969986  29.1420002  77.3679962 101.6330032  28.2940006  76.8420029
 100.5619965  29.5970001  77.8830032  99.4359970  28.9759998  77.5910034
  99.4469986  28.2509995  76.9029999  98.5650024  29.3509998  77.9100037
 100.5210037  30.6459999  78.6740036 101.3840027  31.0769997  78.9390030
  99.6539993  30.9300003  79.0830002 103.0130005  26.2310009  76.3619995
 101.8170013  26.5240002  76.2919998 103.6070023  25.4820004  75.4100037
 104.5920029  25.3309994  75.4459991 102.9069977  24.8369999  74.3119965
 102.3690033  25.6040001  73.7750015 103.9359970  24.2080002  73.3330002
 104.6650009  23.6140003  73.9250031 104.4990005  25.0450001  72.8659973
 103.3420029  23.2900009  72.2350006 102.5270004  23.8209991  71.6989975
 102.9160004  22.3719997  72.6940002 104.3899994  22.8740005  71.2060013
 104.7149963  21.6580009  71.1220016 104.8899994  23.7520008  70.4509964
 101.8580017  23.8050003  74.7289963 100.7269974  23.8090000  74.2409973
 102.1999969  22.9179993  75.6880035 103.1360016  22.9109993  76.0299988
 101.3030014  21.9260006  76.2610016 100.9130020  21.3419991  75.4410019
 102.0739975  20.9549999  77.1940002 101.3560028  20.3519993  77.7900009
 102.6760025  21.5590000  77.9059982 102.9710007  19.9599991  76.4169998
 103.6709976  20.4969997  75.7419968 102.3349991  19.2999992  75.7900009
 103.7770004  19.0739994  77.3669968 103.5270004  17.8750000  77.5189972
 104.7870026  19.6790009  78.0339966 105.3219986  19.1359997  78.6819992
 104.9899979  20.6399994  77.8440018 100.0759964  22.4689999  76.9899979
  98.9899979  21.8889999  76.9339981 100.2399979  23.5879993  77.7210007
 101.1429977  24.0079994  77.7610016  99.2440033  24.1679993  78.6050034
  99.0139999  23.4190006  79.3489990  99.8809967  25.4080009  79.2860031
  99.9219971  26.2560005  78.5690002 100.9329987  25.1599998  79.5429993
  99.2149963  25.8670006  80.5989990  98.1240005  25.9939995  80.4329987
  99.4319992  24.8230000  81.7060013 100.5169983  24.6240005  81.8369980
  98.9229965  23.8659992  81.4609985  99.0339966  25.1919994  82.6760025
  99.7880020  27.2240009  81.0370026  99.5940018  27.9969997  80.2630005
 100.8850021  27.1480007  81.1900024  99.3239975  27.5599995  81.9889984
  97.9199982  24.5650005  77.9410019  96.8339996  24.3160000  78.4720001
  97.9860001  25.1910000  76.7419968  98.8799973  25.3220005  76.3209991
  96.8170013  25.7049999  76.0199966  97.1780014  26.2430000  75.1549988
  96.2839966  26.3589993  76.6940002  95.8010025  24.6910000  75.5189972
  94.6179962  24.8700008  75.8199997  96.1409988  23.6180000  74.7939987
  97.4260025  23.5119991  74.0879974  98.1210022  22.9130001  74.7139969
  97.8850021  24.4990005  73.8619995  95.1250000  22.7989998  74.1320038
  94.4670029  23.4580002  73.5839996  95.9290009  21.8859997  73.1949997
  95.3280029  21.5529995  72.3219986  96.3170013  20.9950008  73.7340012
  97.1090012  22.7670002  72.7900009  97.9749985  22.1830006  72.4120026
  96.7850037  23.4930000  72.0139999  94.2750015  21.9939995  75.0910034
  93.0859985  21.8139992  74.8330002  94.8519974  21.4880009  76.1989975
  95.8320007  21.6079998  76.3379974  94.1080017  20.8139992  77.2559967
  93.5530014  20.0060005  76.8040009  95.0449982  20.2150002  78.3040009
  95.6999969  21.0079994  78.7239990  94.2500000  19.5610008  79.4550018
  93.5270004  18.8190002  79.0559998  93.6949997  20.3139992  80.0550003
  94.9459991  19.0319996  80.1409988  95.9300003  19.1529999  77.6210022
  96.5810013  19.6000004  76.8389969  95.3000031  18.3680000  77.1500015
  96.5869980  18.6650009  78.3720016  93.0770035  21.7339993  77.9059982
  91.9199982  21.3689995  78.1169968  93.4629974  22.9960003  78.1959991
  94.4049988  23.2730007  78.0240021  92.5400009  24.0270004  78.6679993
  92.0139999  23.6079998  79.5130005  93.2440033  25.2770004  79.1829987
  93.9509964  25.6650009  78.4189987  93.9509964  24.9500008  80.3799973
  94.7969971  24.5849991  80.1110001  92.2539978  26.3889999  79.5640030
  91.4840012  26.0090008  80.2679977  91.7440033  26.8040009  78.6679993
  92.7939987  27.2269993  80.0559998  91.4489975  24.3729992  77.6679993
  90.2750015  24.4740009  78.0220032  91.7829971  24.5060005  76.3669968
  92.7409973  24.4799995  76.0910034  90.8000031  24.6590004  75.3050003
  90.1930008  25.5149994  75.5619965  91.4700012  24.9729996  73.9440002
  90.7009964  24.9519997  73.1419983  92.2170029  24.1819992  73.7190018
  92.1460037  26.3659992  73.9160004  92.9380035  26.4249992  74.6920013
  91.3909988  27.1499996  74.1419983  92.8109970  26.6369991  72.5619965
  93.7289963  25.9300003  72.1350021  92.3470001  27.6930008  71.8529968
  92.7699966  27.8950005  70.9700012  91.6100006  28.2590008  72.2220001
  89.8180008  23.4899998  75.1640015  88.6129990  23.6889992  75.0110016
  90.3020020  22.2350006  75.2539978  91.2870026  22.0860004  75.2890015
  89.4749985  21.0400009  75.3219986  88.8470001  21.0230007  74.4440002
  90.3799973  19.7800007  75.3050003  91.1149979  19.8689995  76.1330032
  90.9619980  19.7880001  74.3590012  89.6630020  18.4130001  75.4550018
  89.1110001  18.3649998  76.4179993  90.4280014  17.6079998  75.4690018
  88.7020035  18.1089993  74.3069992  89.1370010  18.1280003  73.1230011
  87.5080032  17.8050003  74.5739975  88.5370026  21.0139999  76.5309982
  87.3399963  20.7380009  76.4169998  89.0510025  21.3799992  77.7269974
  90.0309982  21.5400009  77.8140030  88.2549973  21.5750008  78.9270020
  87.7289963  20.6520004  79.1190033  89.1880035  21.8689995  80.1429977
  89.8209991  22.7549992  79.9199982  89.8649979  21.0030003  80.3050003
  88.4309998  22.1399994  81.4240036  88.0690002  21.0799999  82.2720032
  88.3369980  20.0680008  82.0059967  87.3519974  21.3209991  83.4509964
  87.0780029  20.4979992  84.0940018  86.9889984  22.6289997  83.7949982
  86.4290009  22.8129997  84.6999969  88.0849991  23.4529991  81.7939987
  88.3590012  24.2789993  81.1549988  87.3550034  23.6970005  82.9639969
  87.0770035  24.7070007  83.2249985  87.1809998  22.6560001  78.7559967
  86.0169983  22.4519997  79.0979996  87.5390015  23.8099995  78.1589966
  88.4970016  23.9769993  77.9400024  86.6119995  24.8630009  77.8010025
  86.0960007  25.1490002  78.7050018  87.3840027  26.1219997  77.2990036
  88.1640015  25.7770004  76.5869980  87.9179993  26.5699997  78.1640015
  86.5739975  27.1849995  76.6169968  85.6849976  28.0419998  77.2160034
  85.5039978  28.0830002  78.2799988  85.0699997  28.8110008  76.2539978
  84.4240036  29.5279999  76.3980026  85.5630035  28.4839993  75.0220032
  86.5130005  27.4500008  75.2030029  87.1610031  26.9080009  74.0889969
  87.8820038  26.1119995  74.1959991  86.8600006  27.4220009  72.8239975
  87.3560028  27.0189991  71.9540024  85.2669983  28.9939995  73.7649994
  84.5469971  29.7889996  73.6350021  85.9329987  28.4480000  72.6650009
  85.7279968  28.8279991  71.6740036  85.5120010  24.4209995  76.8290024
  84.3379974  24.7169991  77.0419998  85.8470001  23.6599998  75.7659988
  86.8059998  23.4799995  75.5619965  84.8700027  23.0779991  74.8669968
  84.2649994  23.8939991  74.4990005  85.5950012  22.4099998  73.6650009
  86.1790009  21.5270004  74.0019989  86.3010025  23.1469994  73.2259979
  84.6159973  22.0020008  72.5780029  84.7190018  20.8630009  72.0449982
  83.7419968  22.8239994  72.1949997  83.9029999  22.1009998  75.5650024
  82.6869965  22.1439991  75.3700027  84.4179993  21.2119999  76.4420013
  85.4059982  21.1450005  76.5520020  83.5999985  20.3430004  77.2730026
  82.9629974  19.7719994  76.6139984  84.5360031  19.3789997  78.0589981
  85.1859970  19.9650002  78.7440033  85.1920013  18.8509998  77.3330002
  83.7649994  18.3150005  78.8399963  82.6949997  17.8540001  78.4319992
  84.3010025  17.9209995  80.0179977  83.8040009  17.2469997  80.5650024
  85.1640015  18.3120003  80.3369980  82.6750031  21.1210003  78.2289963
  81.4710007  20.8689995  78.3150024  83.2259979  22.1410007  78.9209976
  84.2070007  22.3069992  78.8580017  82.5080032  23.0499992  79.7929993
  82.0189972  22.4540005  80.5479965  83.5090027  24.0160007  80.4800034
  84.0579987  24.5760002  79.6920013  84.2590027  23.4060001  81.0279999
  82.9100037  25.0419998  81.4680023  82.1770020  25.6760006  80.9229965
  82.1780014  24.3649998  82.6380005  82.8769989  23.7150002  83.2070007
  81.3320007  23.7450008  82.2720032  81.7710037  25.1329994  83.3300018
  84.0110016  25.9740009  81.9990005  84.5159988  26.5000000  81.1610031
  84.7730026  25.3929996  82.5609970  83.5780029  26.7369995  82.6819992
  81.4130020  23.8339996  79.0709991  80.2910004  23.9529991  79.5650024
  81.6959991  24.3369999  77.8539963  82.6279984  24.2819996  77.5029984
  80.7620010  24.9990005  76.9670029  80.3970032  25.8850002  77.4649963
  81.5309982  25.4300003  75.6809998  82.1579971  24.5590000  75.3949966
  82.2369995  26.2479992  75.9390030  80.7220001  25.7999992  74.4089966
  79.8369980  25.1469994  74.2529984  81.3929977  25.6459999  73.5370026
  80.2740021  27.2609997  74.3929977  79.4980011  27.6790009  75.2910004
  80.6809998  28.0030003  73.4530029  79.5339966  24.1620007  76.6200027
  78.3970032  24.6140003  76.7689972  79.7220001  22.8820000  76.2210007
  80.6460037  22.5289993  76.0940018  78.6230011  21.9699993  75.9499969
  77.9990005  22.4300003  75.1979980  79.1439972  20.6200008  75.3919983
  78.2990036  19.9069996  75.2870026  79.8669968  20.1870003  76.1149979
  79.8229980  20.7320004  74.0149994  80.6539993  21.4659996  74.0879974
  79.0960007  21.1320000  73.2760010  80.3639984  19.3710003  73.5279999
  79.7259979  18.9839993  72.7050018  80.2740021  18.6429996  74.3619995
  81.8420029  19.3750000  73.1039963  82.1859970  18.3430004  72.8799973
  82.4680023  19.7870007  73.9240036  82.0559998  20.2040005  71.8939972
  81.5709991  21.1200008  71.9759979  81.7210007  19.7189999  71.0370026
  83.0729980  20.4020004  71.8000031  77.7170029  21.6860008  77.1480026
  76.4889984  21.7570000  77.0530014  78.3059998  21.3929996  78.3270035
  79.2969971  21.3020000  78.3860016  77.5670013  21.2210007  79.5670013
  76.7990036  20.4829998  79.3880005  78.4810028  20.6879997  80.6999969
  77.8980026  20.6709995  81.6449966  79.3440018  21.3729992  80.8420029
  78.9929962  19.2500000  80.4309998  79.7440033  19.2560005  79.6129990
  78.1399994  18.6149998  80.1090012  79.6289978  18.6170006  81.6660004
  80.6679993  19.1310005  82.1610031  79.0999985  17.5799999  82.1549988
  76.8420029  22.4820004  80.0309982  75.6750031  22.4459991  80.4270020
  77.5230026  23.6429996  79.9580002  78.4720001  23.6289997  79.6529999
  76.9749985  24.9559994  80.2900009  76.5800018  24.8889999  81.2929993
  78.0319977  26.0639992  80.2910004  78.4580002  26.1870003  79.2730026
  79.0839996  25.7479992  81.1949997  79.5889969  25.0610008  80.7539978
  77.4499969  27.3990002  80.7659988  76.9729996  27.2940006  81.7630005
  76.6869965  27.7619991  80.0439987  78.2429962  28.1739998  80.8310013
  75.8050003  25.3430004  79.3919983  74.7549973  25.7740002  79.8669968
  75.9160004  25.1140003  78.0650024  76.7760010  24.7870007  77.6819992
  74.8570023  25.3330002  77.0930023  74.5770035  26.3740005  77.1699982
  75.3639984  25.1130009  75.6380005  75.9649963  24.1790009  75.6039963
  76.0520020  25.9549999  75.4059982  74.2559967  25.0160007  74.5579987
  73.4499969  25.7380009  74.8099976  73.8059998  24.0000000  74.5500031
  74.7580032  25.3400002  73.1529999  75.5449982  24.5440006  72.5749969
  74.3450012  26.4009991  72.6050034  73.5619965  24.5629997  77.3489990
  72.4619980  25.0909996  77.1750031  73.6579971  23.2970009  77.8160019
  74.5640030  22.8950005  77.9270020  72.5120010  22.4500008  78.1529999
  72.9020004  21.5349998  78.5749969  71.9540024  22.2819996  77.2429962
  71.5449982  23.0289993  79.1689987  70.3369980  22.7999992  79.0989990
  72.0530014  23.8269997  80.1299973  73.0370026  23.9799995  80.1610031
  71.2630005  24.5769997  81.0950012  70.6470032  23.8659992  81.6250000
  72.1989975  25.2840004  82.1119995  72.8519974  25.9920006  81.5569992
  72.8590012  24.5160007  82.5690002  71.5070038  26.0660000  83.2539978
  70.8160019  26.8139992  82.8099976  70.6920013  25.1410007  84.1709976
  71.3499985  24.3670006  84.6210022  69.8809967  24.6359997  83.6029968
  70.2320023  25.7290001  84.9929962  72.5410004  26.8460007  84.0820007
  73.0989990  27.5569992  83.4359970  73.2649994  26.1490002  84.5550003
  72.0329971  27.4239998  84.8840027  70.3069992  25.5869999  80.4479980
  69.1689987  25.7660007  80.8919983  70.7440033  26.2560005  79.3519974
  71.6409988  26.0429993  78.9729996  69.9840012  27.2740002  78.6389999
  69.7669983  28.0769997  79.3280029  70.7699966  27.8050003  77.4039993
  70.6630020  27.1240005  76.5329971  71.8570023  27.8020000  77.6340027
  70.3659973  29.2420006  77.0029984  70.8349991  29.9510002  77.7190018
  69.2659988  29.3540001  77.1080017  70.7220001  29.6539993  75.5660019
  70.4970016  30.7299995  75.4049988  70.1200027  29.0650005  74.8410034
  72.1949997  29.4459991  75.3789978  72.8209991  29.9379997  75.9840012
  72.7440033  28.5890007  74.5309982  74.0479965  28.4459991  74.4779968
  74.6500015  29.0849991  74.9570007  74.3679962  27.7660007  73.8180008
  72.0820007  27.8330002  73.6829987  72.6380005  27.2539997  73.0859985
  71.0899963  27.9200001  73.5920029  68.6709976  26.7250004  78.1019974
  67.6129990  27.3430004  78.2149963  68.7239990  25.5130005  77.5090027
  69.6029968  25.0459995  77.4440002  67.5790024  24.8230000  76.9580002
  67.1250000  25.4799995  76.2300034  68.0380020  23.5370007  76.2220001
  68.6250000  22.9109993  76.9270020  68.7269974  23.8530006  75.4100037
  66.8850021  22.6849995  75.6360016  66.2350006  23.3129997  74.9909973
  66.2590027  22.2630005  76.4509964  67.4089966  21.5070000  74.8089981
  67.3119965  20.3409996  75.2030029  67.9710007  21.8090000  73.6149979
  68.3059998  21.0599995  73.0429993  68.0350037  22.7619991  73.3190002
  66.4970016  24.5130005  77.9840012  65.3140030  24.7500000  77.7440033
  66.8799973  24.0170002  79.1790009  67.8420029  23.8279991  79.3600006
  65.9560013  23.7740002  80.2750015  65.1740036  23.1270008  79.9069977
  66.6669998  23.0510006  81.4489975  65.9489975  22.9599991  82.2919998
  67.5279999  23.6580009  81.8000031  67.1520004  21.6280003  81.0749969
  67.9680023  21.6970005  80.3239975  66.3150024  21.0550003  80.6210022
  67.6539993  20.8430004  82.2850037  68.8639984  20.4920006  82.3300018
  66.8369980  20.5389996  83.1969986  65.2610016  25.0349998  80.7910004
  64.0400009  25.0699997  80.9599991  66.0260010  26.1250000  81.0049973
  67.0149994  26.0699997  80.8939972  65.4909973  27.4260006  81.3690033
  64.8769989  27.2870007  82.2470016  66.6330032  28.4080009  81.7350006
  66.2119980  29.4230003  81.9029999  67.3410034  28.4750004  80.8809967
  67.4150009  28.0060005  83.0049973  68.2819977  28.6930008  83.1050034
  67.8349991  26.9869995  82.8669968  66.4300003  28.0669994  84.5360031
  67.7379990  27.4120007  85.6119995  68.6539993  28.0370007  85.5569992
  68.0130005  26.3770008  85.3180008  67.4069977  27.3859997  86.6729965
  64.5690002  28.0400009  80.3119965  63.4790001  28.5330009  80.6110001
  64.9739990  27.9669991  79.0260010  65.8860016  27.6189995  78.8259964
  64.1760025  28.3680000  77.8740005  63.9140015  29.4080009  77.9970016
  65.0070038  28.2199993  76.5589981  65.3789978  27.1770000  76.4710007
  65.8960037  28.8789997  76.6529999  64.2929993  28.5830002  75.3669968
  63.6739998  27.8810005  75.1539993  62.8709984  27.5919991  77.7399979
  61.8030014  28.1690006  77.5380020  62.9150009  26.2520008  77.8939972
  63.7890015  25.7880001  78.0110016  61.7490005  25.3889999  77.8830032
  61.2340012  25.5450001  76.9459991  62.1930008  23.9060001  77.9509964
  62.8470001  23.7639999  78.8369980  62.8139992  23.7000008  77.0530014
  61.0489998  22.8770008  78.0130005  60.3569984  23.0650005  77.1650009
  60.4799995  23.0079994  78.9580002  61.5859985  21.4349995  77.9219971
  62.2480011  21.2320004  78.7910004  62.2220001  21.3680000  77.0130005
  60.5139999  20.3369999  77.8059998  61.0040016  19.3509998  77.6529999
  59.8460007  20.5400009  76.9420013  59.6809998  20.2500000  79.0339966
  59.1290016  21.1200008  79.1750031  60.2779999  20.0930004  79.8710022
  59.0149994  19.4540005  78.9589996  60.7400017  25.6949997  78.9840012
  59.5320015  25.7749996  78.7440033  61.2239990  25.9209995  80.2229996
  62.1959991  25.8110008  80.4160004  60.3989983  26.3519993  81.3310013
  59.6059990  25.6270008  81.4369965  61.2550011  26.3689995  82.6230011
  62.0369987  27.1560001  82.5619965  61.7620010  25.3869991  82.7310028
  60.3880005  26.5860004  83.8529968  60.6980019  27.5060005  84.6549988
  59.4129982  25.8120003  84.0550003  59.7280006  27.7129993  81.0830002
  58.5209999  27.8759995  81.2770004  60.4889984  28.7089996  80.5749969
  61.4700012  28.5799999  80.4509964  59.9469986  29.9960003  80.1790009
  59.4620018  30.4239998  81.0439987  61.0750008  30.9529991  79.7119980
  61.6549988  30.4510002  78.9079971  61.7719994  31.1089993  80.5630035
  60.6139984  32.3339996  79.1800003  59.9519997  32.1769981  78.3020020
  59.8240013  33.1399994  80.2239990  60.4560013  33.3510017  81.1139984
  58.9179993  32.5870018  80.5520020  59.5000000  34.1110001  79.7919998
  61.8180008  33.1440010  78.6829987  62.3359985  32.6010017  77.8639984
  62.5419998  33.3030014  79.5100021  61.4930000  34.1360016  78.3010025
  58.8889999  29.9020004  79.0839996  57.8160019  30.4930000  79.1930008
  59.1450005  29.1089993  78.0250015  60.0299988  28.6550007  77.9540024
  58.2490005  28.9260006  76.9000015  58.0880013  29.8950005  76.4499969
  58.9249992  27.9899998  75.8610001  59.1599998  27.0359993  76.3799973
  59.8979988  28.4360008  75.5619965  58.1020012  27.6439991  74.5940018
  57.0509987  27.3759995  74.8379974  58.5660019  26.7509995  74.1220016
  58.1010017  28.7700005  73.5609970  57.5180016  29.8560009  73.8209991
  58.6749992  28.5699997  72.4540024  56.8730011  28.3829994  77.2870026
  55.8330002  28.8950005  76.8639984  56.8320007  27.3549995  78.1620026
  57.6809998  26.9430008  78.4840012  55.5960007  26.8059998  78.6930008
  54.9920006  26.4860001  77.8570023  55.9339981  25.5769997  79.5790024
  56.5940018  25.9270000  80.4010010  56.5320015  24.8579998  78.9789963
  54.7280006  24.8409996  80.2180023  54.0009995  25.5499992  80.6689987
  55.1150017  24.1989994  81.0380020  53.9910011  23.9410000  79.2259979
  53.3409996  24.4589996  78.2789993  54.0410004  22.6910000  79.3949966
  54.7599983  27.8150005  79.4899979  53.5559998  27.9850006  79.2750015
  55.4020004  28.5610008  80.4120026  56.3699989  28.4050007  80.5950012
  54.7799988  29.6250000  81.1849976  53.9020004  29.2119999  81.6579971
  55.7210007  30.1000004  82.2870026  56.6860008  30.4260006  81.8430023
  55.1100006  31.2709999  83.0800018  54.1020012  31.0000000  83.4589996
  55.0209999  32.1879997  82.4589996  55.7529984  31.5170002  83.9520035
  55.9819984  28.9169998  83.2379990  56.4640007  28.0620003  82.7170029
  55.0279999  28.5620003  83.6819992  56.6570015  29.2329998  84.0619965
  54.2939987  30.7970009  80.3320007  53.1730003  31.2889996  80.4800034
  55.1269989  31.2409992  79.3710022  56.0369987  30.8419991  79.2900009
  54.8400002  32.2919998  78.4179993  54.5970001  33.1829987  78.9769974
  56.1119995  32.5589981  77.5780029  56.3950005  31.6310005  77.0370026
  56.9360008  32.7849998  78.2880020  56.0219994  33.7190018  76.5749969
  55.7099991  34.6320000  77.1250000  55.2500000  33.4959984  75.8079987
  57.3829994  33.9399986  75.8820038  57.6510010  32.9939995  75.3639984
  58.1660004  34.1129990  76.6510010  57.4259987  35.0649986  74.8320007
  56.6230011  34.9230003  74.0770035  58.4090004  35.0540009  74.3140030
  57.2550011  36.4029999  75.4609985  57.9630013  36.5460014  76.2089996
  56.3059998  36.4980011  75.8740005  57.3800011  37.1510010  74.7490005
  53.6409988  31.9860001  77.5230026  52.7869987  32.8390007  77.2740021
  53.5229988  30.7299995  77.0459976  54.2589989  30.0699997  77.1760025
  52.3370018  30.2310009  76.3850021  52.1399994  30.8700008  75.5370026
  52.6020012  28.8010006  75.8779984  52.8180008  28.1119995  76.7229996
  53.4830017  28.7980003  75.1999969  51.7290001  28.4099998  75.3130035
  51.0750008  30.2460003  77.2600021  50.0009995  30.6490002  76.8089981
  51.1759987  29.8230000  78.5400009  52.0489998  29.4769993  78.8759995
  50.0690002  29.7929993  79.4830017  49.2910004  29.1949997  79.0299988
  50.4830017  29.0779991  80.8020020  51.4039993  29.5559998  81.1979980
  50.7389984  28.0259991  80.5540009  49.4150009  29.0939999  81.9140015
  48.4700012  28.6830006  81.4980011  49.2140007  30.1369991  82.2399979
  49.8089981  28.2770004  83.1610031  50.7169991  28.7320004  83.6119995
  50.0660019  27.2460003  82.8389969  48.6739998  28.2240009  84.1999969
  47.7859993  27.7259998  83.7549973  48.3870010  29.2509995  84.5120010
  49.0699997  27.4659996  85.4110031  49.7060013  28.0249996  86.0159988
  49.5340004  26.5680008  85.1650009  48.2350006  27.2520008  85.9919968
  49.4109993  31.1380005  79.8040009  48.1829987  31.2479992  79.8470001
  50.2050018  32.2010002  80.0449982  51.1969986  32.0960007  80.0429993
  49.6959991  33.5159988  80.4189987  49.0390015  33.3489990  81.2590027
  50.7770004  34.4690018  80.9329987  50.3269997  35.4599991  81.1559982
  51.3300018  33.9129982  82.2580032  51.8339996  32.9350014  82.1009979
  50.5149994  33.7770004  83.0009995  52.0760002  34.6160011  82.6859970
  51.9109993  34.6629982  79.9110031  51.5309982  35.0880013  78.9560013
  52.4169998  33.6969986  79.6999969  52.6710014  35.3639984  80.3180008
  48.8100014  34.2179985  79.3880005  47.8089981  34.8429985  79.7460022
  49.1430016  34.1409988  78.0820007  49.9370003  33.6049995  77.8050003
  48.4609985  34.8930016  77.0390015  48.5040016  35.9220009  77.3639984
  49.2350006  34.8330002  75.6900024  48.6119995  35.2970009  74.8949966
  49.4090004  33.7760010  75.3960037  50.6059990  35.5620003  75.6890030
  51.0279999  35.5789986  74.6610031  51.3170013  35.0029984  76.3339996
  50.5449982  36.9970016  76.2229996  51.1419983  37.3400002  77.2470016
  49.8100014  37.8750000  75.5009995  49.7659988  38.8250008  75.8119965
  49.3540001  37.5760002  74.6630020  46.9500008  34.6619987  76.8570023
  46.2369995  35.6640015  76.7460022  46.3639984  33.4560013  76.8700027
  47.0569992  32.2029991  76.5530014  47.3540001  31.7129993  77.5049973
  47.9529991  32.3470001  75.9130020  44.9160004  33.3050003  76.7310028
  44.5859985  33.8940010  75.8880005  44.7109985  31.7970009  76.4980011
  43.8199997  31.5919991  75.8659973  44.6090012  31.2450008  77.4570007
  46.0110016  31.3600006  75.8249969  46.2029991  30.2689991  75.9169998
  45.9920006  31.6399994  74.7500000  44.1699982  33.7830009  77.9649963
  43.0859985  34.3520012  77.8359985  44.7229996  33.5489998  79.1729965
  45.5900002  33.0589981  79.2190018  44.1819992  34.0400009  80.4319992
  43.1590004  33.7000008  80.4950027  45.0060005  33.4309998  81.6060028
  46.0719986  33.7229996  81.4919968  44.9480019  32.3219986  81.5520020
  44.5330009  33.8370018  82.9820023  45.4529991  34.2430000  83.9649963
  46.5029984  34.3079987  83.7220001  45.0229988  34.5460014  85.2659988
  45.7439995  34.8530006  86.0100021  43.6650009  34.4500008  85.5920029
  43.2150002  34.7340012  86.9020004  43.9819984  34.8600006  87.4660034
  43.1720009  33.7449989  83.3249969  42.4510002  33.4179993  82.5910034
  42.7400017  34.0579987  84.6200027  41.6930008  33.9790001  84.8730011
  44.1389999  35.5690002  80.4970016  43.1349983  36.1790009  80.8740005
  45.2330017  36.2270012  80.0630035  46.0649986  35.7220001  79.8450012
  45.2900009  37.6640015  79.8820038  45.0460014  38.1189995  80.8310013
  46.7369995  38.0800018  79.5100021  47.0579987  37.5019989  78.6169968
  47.4029999  37.7809982  80.3479996  46.9550018  39.5810013  79.2180023
  46.3300018  39.8520012  78.3410034  46.5369987  40.4860001  80.3909988
  47.1230011  40.2449989  81.3030014  45.4580002  40.3600006  80.6220016
  46.7120018  41.5519981  80.1299973  48.4150009  39.8450012  78.8180008
  48.6920013  39.2220001  77.9410019  49.1030006  39.5989990  79.6549988
  48.5540009  40.9140015  78.5490036  44.2750015  38.2060013  78.8619995
  43.5740013  39.1839981  79.1200027  44.1259995  37.5530014  77.6859970
  44.7179985  36.7799988  77.4690018  43.1380005  37.8839989  76.6679993
  43.2859993  38.9099998  76.3649979  43.4099998  36.9790001  75.4270020
  43.2789993  35.9109993  75.7020035  44.4700012  37.1170006  75.1230011
  42.5390015  37.2789993  74.2180023  42.5159988  36.4339981  73.2799988
  41.9049988  38.3660011  74.1309967  41.6920013  37.7879982  77.1890030
  40.8839989  38.7070007  77.0360031  41.3569984  36.6940002  77.9039993
  42.0149994  35.9529991  78.0159988  40.0660019  36.4910011  78.5309982
  39.3180008  36.5530014  77.7539978  40.0670013  35.0639992  79.1510010
  40.8129997  35.0169983  79.9729996  40.3769989  34.3390007  78.3679962
  38.7140007  34.6119995  79.6809998  37.6559982  35.0820007  79.1880035
  38.6969986  33.6769981  80.5289993  39.7299995  37.5769997  79.5699997
  38.6430016  38.1619987  79.5729980  40.7080002  37.9230003  80.4369965
  41.5680008  37.4189987  80.4349976  40.6049995  39.0190010  81.3809967
  39.7299995  38.8370018  81.9869995  41.8610001  39.0169983  82.3050003
  42.7799988  39.1049995  81.6869965  41.9150009  38.0540009  82.8550034
  41.8479996  40.1339989  83.3199997  40.9029999  40.1199989  84.3590012
  40.1940002  39.3089981  84.4260025  40.8720016  41.1510010  85.3069992
  40.1440010  41.1269989  86.1050034  41.7890015  42.2060013  85.2259979
  41.7630005  43.0029984  85.9550018  42.7739983  41.1910019  83.2539978
  43.5110016  41.2070007  82.4649963  42.7430000  42.2249985  84.1999969
  43.4519997  43.0369987  84.1350021  40.3909988  40.3870010  80.7119980
  39.5000000  41.1520004  81.0920029  41.1679993  40.6930008  79.6500015
  41.9020004  40.0750008  79.3779984  41.0099983  41.8950005  78.8539963
  41.0849991  42.7340012  79.5299988  42.1419983  42.0470009  77.8059998
  41.8759995  42.8440018  77.0790024  42.2220001  41.0919991  77.2429962
  43.5019989  42.4339981  78.4319992  43.8069992  41.7080002  79.2160034
  43.4179993  43.4350014  78.9069977  44.6049995  42.5099983  77.3740005
  45.2120018  43.5559998  77.1259995  44.8829994  41.3590012  76.7190018
  45.5740013  41.3720016  75.9960022  44.4179993  40.5180016  76.9970016
  39.6559982  42.0530014  78.1780014  39.0600014  43.1279984  78.2229996
  39.1059990  40.9840012  77.5640030  39.6139984  40.1310005  77.4769974
  37.7700005  41.0139999  76.9950027  37.7439995  41.8250008  76.2829971
  37.4449997  39.7109985  76.2229996  36.3689995  39.7120018  75.9459991
  37.6220016  38.8310013  76.8779984  38.2369995  39.5550003  74.9140015
  39.3129997  39.3959999  75.1380005  38.1549988  40.5000000  74.3349991
  37.6839981  38.4059982  74.0520020  36.6059990  38.6180000  73.8870010
  37.7340012  37.4500008  74.6159973  38.3310013  38.2570000  72.6660004
  38.4550018  39.2519989  72.1880035  37.6710014  37.6370010  72.0240021
  39.6510010  37.5880013  72.7389984  39.5439987  36.6290016  73.1269989
  40.3400002  38.0950012  73.3290024  40.0589981  37.5000000  71.7870026
  36.6489983  41.3089981  77.9909973  35.7709999  42.1349983  77.7330017
  36.6749992  40.6679993  79.1800003  37.3769989  39.9840012  79.3619995
  35.7369995  40.9430008  80.2549973  34.7389984  40.7929993  79.8710022
  35.9739990  39.9370003  81.4110031  37.0480003  39.9609985  81.6930008
  35.7630005  38.9179993  81.0230026  35.1320000  40.1749992  82.6780014
  34.0610008  40.2159996  82.3880005  35.4049988  41.1500015  83.1350021
  35.3619995  39.0610008  83.7200012  36.4539986  38.9980011  83.9120026
  35.0550003  38.0830002  83.2919998  34.6710014  39.2799988  85.0780029
  34.9580002  40.2659988  85.5019989  34.9790001  38.4840012  85.7890015
  33.1920013  39.2350006  84.9520035  32.8889999  38.3390007  84.5179977
  32.8400002  40.0200005  84.3679962  32.7459984  39.3059998  85.8889999
  35.7970009  42.3810005  80.7710037  34.7809982  43.0660019  80.9100037
  37.0219994  42.8870010  81.0049973  37.8199997  42.2970009  80.9140015
  37.2989998  44.2639999  81.3610001  36.7340012  44.4959984  82.2519989
  38.8180008  44.3559990  81.6999969  39.3300018  43.7840004  80.8970032
  39.0009995  43.8009987  82.6449966  39.5070000  45.6860008  81.7760010
  39.0070000  46.9490013  81.9810028  37.9739990  47.1720009  82.2050018
  40.0149994  47.8740005  81.8229980  39.9329987  48.8460007  81.8399963
  41.1870003  47.2260017  81.5469971  40.9150009  45.8380013  81.5309982
  41.9539986  44.9319992  81.2990036  41.7779999  43.8670006  81.3130035
  43.2350006  45.4329987  81.0579987  44.0499992  44.7490005  80.8750000
  42.4560013  47.7220001  81.2949982  42.6570015  48.7830009  81.2900009
  43.4790001  46.8030014  81.0449982  44.4780006  47.1570015  80.8399963
  36.8549995  45.2820015  80.3059998  36.1949997  46.2750015  80.6190033
  37.1510010  45.0359993  79.0139999  37.7299995  44.2620010  78.7710037
  36.7089996  45.8689995  77.9140015  37.0709991  46.8689995  78.1039963
  37.3230019  45.3580017  76.5820007  37.0999985  44.2750015  76.4769974
  38.4259987  45.4529991  76.6699982  36.8660011  46.0769997  75.2860031
  35.8139992  45.7929993  75.0660019  37.4959984  45.7389984  74.4359970
  36.9809990  47.6040001  75.3799973  37.9319992  48.1580009  75.9359970
  35.9930000  48.3219986  74.7919998  35.2340012  47.8580017  74.3359985
  36.0460014  49.3199997  74.8219986  35.1899986  45.9710007  77.7949982
  34.6339989  47.0610008  77.6549988  34.4749985  44.8300018  77.9130020
  34.9430008  43.9529991  77.9889984  33.0229988  44.7869987  77.9349976
  32.6660004  45.2299995  77.0169983  32.5499992  43.3100014  77.9919968
  32.9650002  42.8419991  78.9100037  32.9959984  42.7669983  77.1309967
  31.0149994  43.0950012  77.9909973  30.5419998  43.6430016  78.8349991
  30.7989998  42.0139999  78.1320038  30.3570004  43.5219994  76.6800003
  30.7269993  42.9770012  75.6039963  29.4389992  44.3860016  76.7080002
  32.4090004  45.5849991  79.0930023  31.4950008  46.3909988  78.9029999
  32.9570007  45.4280014  80.3219986  33.6769981  44.7500000  80.4520035
  32.5970001  46.2120018  81.4929962  31.5359993  46.0919991  81.6549988
  33.3429985  45.6619987  82.7470016  34.3979988  45.4749985  82.4520035
  32.8969994  44.6780014  83.0049973  33.3540001  46.5820007  83.9980011
  32.3089981  46.8549995  84.2600021  33.9189987  47.5139999  83.7860031
  34.0070000  45.9269981  85.2180023  33.3279991  45.8160019  86.2770004
  35.2099991  45.5579987  85.1529999  32.8289986  47.7159996  81.3470001
  31.9510002  48.5349998  81.6309967  34.0139999  48.1170006  80.8450012
  34.7239990  47.4410019  80.6640015  34.3440018  49.4980011  80.5550003
  34.1720009  50.0579987  81.4619980  35.8489990  49.6440010  80.2149963
  36.0970001  48.9269981  79.4020004  36.4329987  49.3380013  81.1090012
  36.2729988  51.0610008  79.7770004  35.7789993  51.7869987  80.4580002
  35.8779984  51.2550011  78.7570038  38.0670013  51.3829994  79.8140030
  38.5740013  50.1090012  78.6289978  38.0379982  50.2260017  77.6620026
  38.3610001  49.0890007  79.0169983  39.6640015  50.1679993  78.4229965
  33.4620018  50.1559982  79.4950027  32.9850006  51.2770004  79.6679993
  33.1780014  49.4550018  78.3789978  33.6080017  48.5699997  78.2200012
  32.2430000  49.8989983  77.3600006  32.5660019  50.8759995  77.0329971
  32.2960014  48.9519997  76.1380005  32.0699997  47.9160004  76.4690018
  33.3450012  48.9589996  75.7720032  31.3430004  49.3409996  74.9820023
  31.4829998  50.4140015  74.7300034  30.2859993  49.1920013  75.2910004
  31.6089993  48.5270004  73.7170029  30.6840000  47.8069992  73.2509995
  32.7350006  48.6129990  73.1539993  30.8050003  50.0719986  77.8580017
  30.1359997  51.0680008  77.5739975  30.3040009  49.1170006  78.6689987
  30.8250008  48.2859993  78.8440018  29.0300007  49.2210007  79.3560028
  28.2709999  49.3889999  78.6060028  28.7280006  47.8870010  80.0869980
  29.5680008  47.6570015  80.7760010  28.7040005  47.0820007  79.3209991
  27.4080009  47.8269997  80.8850021  27.4459991  48.5810013  81.7009964
  26.1900005  48.1349983  79.9990005  26.1420002  47.4179993  79.1510010
  26.2479992  49.1660004  79.5879974  25.2520008  48.0480003  80.5869980
  27.2490005  46.4449997  81.5370026  28.1100006  46.2260017  82.2040024
  27.1980000  45.6549988  80.7559967  26.3150005  46.4029999  82.1380005
  28.9580002  50.4020004  80.3249969  27.9820004  51.1529999  80.3669968
  30.0300007  50.6339989  81.1090012  30.7880001  49.9860001  81.1139984
  30.1720009  51.8050003  81.9509964  29.2989998  51.8349991  82.5859985
  31.4290009  51.6500015  82.8580017  32.3219986  51.4729996  82.2200012
  31.2950001  50.7669983  83.5179977  31.6800003  52.8600006  83.7239990
  32.9039993  53.5499992  83.6760025  33.6920013  53.2039986  83.0220032
  33.0989990  54.7019997  84.4499969  34.0309982  55.2459984  84.3949966
  32.0760002  55.1730003  85.2789993  32.2700005  56.3540001  86.0279999
  31.4489994  56.5730019  86.4739990  30.6660004  53.3300018  84.5739975
  29.7159996  52.8180008  84.6179962  30.8579998  54.4879990  85.3359985
  30.0480003  54.8639984  85.9430008  30.1720009  53.1290016  81.1760025
  29.4860001  54.0839996  81.5360031  30.8999996  53.1940002  80.0469971
  31.4880009  52.4269981  79.8010025  30.9419994  54.3380013  79.1549988
  31.3010006  55.1879997  79.7149963  31.9209995  54.0180016  78.0009995
  31.5240002  53.1640015  77.4110031  32.8709984  53.6720009  78.4629974
  32.2260017  55.1850014  77.0380020  32.7719994  55.9830017  77.5859985
  31.2730007  55.6269989  76.6770020  33.0279999  54.7630005  75.7949982
  33.2439995  55.6380005  75.1460037  32.4430008  54.0070000  75.2279968
  34.3199997  54.1720009  76.2750015  34.6389999  54.3950005  77.1959991
  35.0839996  53.3479996  75.5680008  36.1609993  52.8300018  76.1259995
  36.4259987  53.1139984  77.0469971  36.7719994  52.2599983  75.5759964
  34.8180008  53.0289993  74.3199997  34.0550003  53.4780006  73.8560028
  35.4440002  52.4389992  73.8099976  29.5620003  54.6959991  78.6009979
  29.1560001  55.8590012  78.5650024  28.7789993  53.6699982  78.2099991
  29.1569996  52.7470016  78.1930008  27.3799992  53.7980003  77.8529968
  27.3190002  54.5110016  77.0439987  26.8460007  52.4370003  77.3310013
  27.0459995  51.6619987  78.1009979  27.4449997  52.1689987  76.4349976
  25.3349991  52.4119987  76.9909973  25.1000004  53.1790009  76.2220001
  24.7280006  52.6310005  77.8949966  24.8859997  51.0410004  76.4759979
  24.0830002  50.3450012  77.1039963  25.4080009  50.6349983  75.2959976
  25.1329994  49.7439995  74.9349976  26.0459995  51.2249985  74.8010025
  26.4909992  54.3460007  78.9739990  25.6529999  55.2179985  78.7419968
  26.6739998  53.8750000  80.2300034  27.3269997  53.1380005  80.3870010
  25.9899998  54.4000015  81.4069977  24.9279995  54.3190002  81.2249985
  26.3299999  53.5610008  82.6760025  27.4260006  53.6100006  82.8550034
  26.0799999  52.5009995  82.4599991  25.6079998  54.0099983  83.9639969
  24.5200005  53.8170013  83.8460007  25.7320004  55.1040001  84.1119995
  26.1089993  53.3279991  85.2580032  25.4960003  53.7369995  86.0899963
  27.1569996  53.6510010  85.4369965  26.0359993  51.7919998  85.2750015
  26.7910004  51.3709984  84.5770035  25.0259991  51.4529991  84.9599991
  26.3010006  51.2680016  86.6389999  25.5109997  51.4939995  87.2760010
  27.1499996  51.7210007  87.0319977  26.4370003  50.2360001  86.6340027
  26.2779999  55.8829994  81.6780014  25.3740005  56.6739998  81.9509964
  27.5580006  56.2960014  81.5820007  28.2709999  55.6199989  81.4150009
  28.0209999  57.6679993  81.7570038  27.6900005  57.9980011  82.7310028
  29.5529995  57.7309990  81.7460022  29.9349995  57.1699982  80.8659973
  30.0919991  59.1759987  81.6760025  29.6550007  59.7929993  82.4889984
  29.8670006  59.6500015  80.6969986  31.1959991  59.1689987  81.8040009
  30.0799999  57.0600014  83.0270004  29.7420006  56.0040016  83.1050034
  29.7269993  57.6080017  83.9270020  31.1910000  57.0649986  83.0329971
  27.4349995  58.6720009  80.7639999  27.0489998  59.7849998  81.1320038
  27.3390007  58.2929993  79.4729996  27.6200008  57.3720016  79.2129974
  27.0440006  59.1990013  78.3750000  27.8519993  59.9160004  78.3799973
  27.1749992  58.4609985  77.0130005  26.6760006  57.4720001  77.0920029
  28.2549992  58.2570000  76.8519974  26.5860004  59.2080002  75.7900009
  26.9370003  60.2620010  75.7979965  25.4750004  59.2159996  75.8359985
  27.0030003  58.5690002  74.4680023  27.7539997  59.2200012  73.6910019
  26.5739994  57.4189987  74.1780014  25.7840004  60.0820007  78.4520035
  25.9169998  61.2799988  78.1719971  24.5809994  59.6529999  78.8550034
  24.1669998  58.2470016  78.8259964  24.3080006  57.8160019  79.8399963
  24.7339993  57.6479988  78.0820007  23.4249992  60.5460014  78.8840027
  23.3700008  61.0709991  77.9410019  22.2220001  59.6080017  79.0899963
  21.3020000  60.0060005  78.6110001  22.0209999  59.4309998  80.1679993
  22.6830006  58.2919998  78.4609985  22.1240005  57.4109993  78.8430023
  22.5750008  58.3450012  77.3560028  23.5230007  61.5820007  79.9909973
  23.2019997  62.7470016  79.7559967  23.9640007  61.1899986  81.2050018
  24.1870003  60.2299995  81.3580017  24.2259998  62.1059990  82.3040009
  23.3209991  62.6699982  82.4729996  24.5739994  61.3240013  83.5970001
  25.4519997  60.6730003  83.4010010  23.7150002  60.6599998  83.8330002
  24.8740005  62.1850014  84.8470001  25.7880001  62.7859993  84.6539993
  23.7280006  63.1539993  85.1829987  22.7880001  62.5909996  85.3639984
  23.5580006  63.8730011  84.3529968  23.9729996  63.7340012  86.0979996
  25.1620007  61.2869987  86.0589981  26.0170002  60.6100006  85.8470001
  24.2730007  60.6669998  86.3020020  25.4130001  61.9049988  86.9479980
  25.3190002  63.1209984  81.9769974  25.1910000  64.3170013  82.2419968
  26.4090004  62.6609993  81.3290024  26.5039997  61.6829987  81.1610031
  27.4909992  63.4970016  80.8470001  27.9270000  64.0049973  81.6949997
  28.5569992  62.5699997  80.2040024  28.0450001  61.9199982  79.4619980
  28.9430008  61.9020004  81.0029984  29.7479992  63.2639999  79.5130005
  30.2679996  63.8779984  80.2789993  29.4069996  63.9570007  78.7139969
  30.7700005  62.2789993  78.9219971  31.0489998  61.5270004  79.6900024
  31.6779995  62.8209991  78.5780029  30.1399994  61.6080017  77.7379990
  29.3369999  62.0250015  77.3119965  30.7029991  60.6100006  77.0660019
  30.1609993  60.2000008  75.9359970  29.3560009  60.6590004  75.5609970
  30.6000004  59.4729996  75.4079971  31.8029995  60.0110016  77.4690018
  32.2459984  60.3079987  78.3150024  32.1949997  59.2739983  76.9189987
  27.0529995  64.5770035  79.8570023  27.3959999  65.7539978  79.9960022
  26.2259998  64.2070007  78.8550034  25.9920006  63.2459984  78.7279968
  25.5919991  65.1429977  77.9489975  26.3659992  65.7350006  77.4840012
  24.8400002  64.3519974  76.8610001  24.0389996  63.7249985  77.3079987
  25.5450001  63.6780014  76.3290024  24.3829994  65.0360031  76.1149979
  24.6280003  66.1179962  78.6299973  24.6590004  67.3280029  78.3919983
  23.7639999  65.6050034  79.5319977  23.7390003  64.6210022  79.6869965
  22.8099995  66.3840027  80.2969971  22.2010002  66.9270020  79.5889969
  21.8689995  65.4509964  81.1029968  22.4890003  64.7480011  81.6999969
  21.3020000  64.8430023  80.3659973  20.8859997  66.1760025  82.0550003
  20.3549995  66.9810028  81.5019989  21.4440002  66.6419983  82.8960037
  19.8330002  65.2310028  82.6299973  18.9990005  64.6959991  81.8499985
  19.8080006  65.0289993  83.8740005  23.4309998  67.4400024  81.2030029
  22.9829998  68.5879974  81.2460022  24.5170002  67.0859985  81.9229965
  24.8330002  66.1409988  81.9130020  25.2730007  68.0039978  82.7539978
  24.5909996  68.4229965  83.4800034  26.3880005  67.2300034  83.5070038
  26.9799995  66.6549988  82.7630005  25.8980007  66.4889984  84.1750031
  27.3729992  68.0749969  84.3489990  27.9370003  68.7470016  83.6679993
  26.6620007  68.9479980  85.3939972  26.0779991  68.3119965  86.0930023
  25.9720001  69.6729965  84.9100037  27.4090004  69.5220032  85.9820023
  28.3990002  67.1630020  85.0410004  28.9519997  66.5589981  84.2900009
  27.8899994  66.4720001  85.7460022  29.1320000  67.7720032  85.6119995
  25.8619995  69.1809998  81.9789963  25.6889992  70.3379974  82.3659973
  26.5009995  68.9240036  80.8160019  26.6420002  67.9840012  80.5169983
  26.9549999  69.9779968  79.9240036  27.6060009  70.6259995  80.4909973
  27.7970009  69.3669968  78.7630005  27.3479996  68.3889999  78.4879990
  28.8080006  69.1510010  79.1699982  27.9540005  70.1809998  77.4469986
  27.0030003  70.0979996  76.8789978  28.7560005  69.7220001  76.8300018
  28.2940006  71.6679993  77.6279984  28.9209995  72.1200027  78.5879974
  27.8560009  72.4879990  76.6389999  28.0610008  73.4629974  76.7239990
  27.3570004  72.1119995  75.8580017  25.8419991  70.8809967  79.3939972
  25.9060001  72.1080017  79.5019989  24.7509995  70.2929993  78.8600006
  24.6980000  69.3000031  78.7839966  23.6289997  71.0559998  78.3479996
  24.0189991  71.7419968  77.6100006  22.6219997  70.1240005  77.6250000
  22.3829994  69.2679977  78.2910004  23.1410007  69.7129974  76.7330017
  21.2959995  70.8050003  77.1999969  21.5130005  71.7750015  76.7030029
  20.6720009  71.0120010  78.0960007  20.4930000  69.9489975  76.2249985
  19.3829994  69.4779968  76.5970001  20.9470005  69.7539978  75.0650024
  22.9220009  71.9260025  79.3820038  22.6809998  73.1149979  79.1650009
  22.6350002  71.3649979  80.5770035  22.8519993  70.4039993  80.7310028
  21.9799995  72.0830002  81.6640015  21.8059998  71.3730011  82.4589996
  21.0660000  72.5149994  81.2850037  22.8080006  73.2040024  82.2379990
  22.3110008  74.3069992  82.4680023  24.1170006  72.9570007  82.4570007
  24.5049992  72.0559998  82.2809982  25.0559998  73.9690018  82.8929977
  24.6870003  74.3880005  83.8180008  26.4360008  73.3320007  83.1500015
  26.8419991  72.8789978  82.2200012  26.3439999  72.5270004  83.9110031
  27.1599998  74.0849991  83.5289993  25.1989994  75.1240005  81.9069977
  25.1509991  76.2910004  82.2959976  25.3180008  74.8259964  80.5940018
  25.3789997  73.8759995  80.2979965  25.3579998  75.8270035  79.5429993
  26.1790009  76.4950027  79.7610016  25.6270008  75.1719971  78.1630020
  24.8610001  74.3830032  78.0049973  26.6119995  74.6610031  78.2149963
  25.6180000  76.1490021  76.9599991  26.4239998  76.8970032  77.1169968
  24.6609993  76.7099991  76.9079971  25.8390007  75.4789963  75.5970001
  26.7870007  74.8990021  75.6050034  25.8689995  76.2389984  74.7870026
  24.6599998  74.5830002  75.3799973  23.8099995  74.7689972  75.8720016
  24.6130009  73.5530014  74.5479965  23.4920006  72.8629990  74.4909973
  22.7089996  73.1839981  75.0230026  23.3990002  72.1090012  73.8410034
  25.6159992  73.1989975  73.7750015  26.4050007  73.8089981  73.6979980
  25.4850006  72.4629974  73.1100006  24.1130009  76.6959991  79.4530029
  24.1970005  77.9199982  79.3440018  22.9050007  76.0989990  79.5199966
  22.8279991  75.1060028  79.5490036  21.6679993  76.8590012  79.5250015
  21.7080002  77.5279999  78.6780014  20.4099998  75.9609985  79.3649979
  19.5189991  76.6230011  79.4069977  20.3379993  75.2639999  80.2279968
  20.2889996  75.1399994  78.0439987  19.2259998  75.1009979  77.7239990
  20.5990009  74.0930023  78.2480011  21.1450005  75.6230011  76.8659973
  22.0790005  74.9520035  76.4140015  20.8080006  76.8160019  76.3239975
  21.3330002  77.1480026  75.5410004  20.0270004  77.3259964  76.6849976
  21.5189991  77.7850037  80.7310028  21.1340008  78.9459991  80.5920029
  21.8729992  77.3089981  81.9459991  22.1450005  76.3560028  82.0490036
  21.8969994  78.1220016  83.1529999  20.9080009  78.5370026  83.2789993
  22.2679996  77.2440033  84.3769989  23.3269997  76.9179993  84.3020020
  21.6490002  76.3219986  84.3420029  22.0279999  77.9209976  85.7419968
  22.5650005  78.8929977  85.7870026  22.4610004  77.2669983  86.5289993
  20.5209999  78.0979996  86.0250015  20.0559998  77.0930023  85.9380035
  20.0480003  78.7330017  85.2460022  20.1639996  78.6360016  87.4199982
  20.7250004  78.0889969  88.2080002  19.0760002  78.4980011  87.6019974
  20.4629993  80.0910034  87.5370026  20.0249996  80.6190033  86.7549973
  21.4869995  80.2730026  87.5380020  20.0580006  80.4449997  88.4270020
  22.8820000  79.2900009  83.0640030  22.5730000  80.4309998  83.4100037
  24.0930004  79.0159988  82.5439987  24.3199997  78.0719986  82.3170013
  25.1389999  79.9759979  82.2500000  25.3899994  80.4940033  83.1640015
  26.3710003  79.1439972  81.7850037  26.0109997  78.3369980  81.1100006
  26.7730007  78.6389999  82.6890030  27.5270004  79.8460007  81.0449982
  27.4960003  80.9300003  81.2870026  28.8850002  79.3010025  81.5169983
  28.9640007  78.2139969  81.3030014  29.0130005  79.4570007  82.6090012
  29.7150002  79.8199997  80.9909973  27.4150009  79.6829987  79.5179977
  26.4820004  80.1480026  79.1330032  27.4160004  78.6080017  79.2389984
  28.2759991  80.1760025  79.0179977  24.7140007  81.0520020  81.2500000
  24.8810005  82.2509995  81.4789963  24.0629997  80.6490021  80.1409988
  23.9880009  79.6729965  79.9530029  23.4729996  81.5540009  79.1699982
  24.2539997  82.2129974  78.8209991  22.9330006  80.7480011  77.9599991
  22.2269993  79.9759979  78.3349991  23.7789993  80.2099991  77.4810028
  22.8430004  82.4130020  76.0329971  23.8209991  82.6169968  75.9919968
  22.2129993  81.5650024  76.9199982  21.8899994  82.8960037  75.1949997
  22.1149998  83.5970001  74.3909988  20.6930008  82.4059982  75.4759979
  20.8980007  81.5640030  76.5609970  20.0760002  81.0080032  76.9950027
  22.3700008  82.4509964  79.7399979  22.3409996  83.6620026  79.5080032
  21.4549999  81.8679962  80.5439987  21.4820004  80.8830032  80.6949997
  20.3770008  82.5739975  81.2119980  19.7849998  83.0660019  80.4530029
  19.4839993  81.5540009  81.9649963  20.0949993  81.0589981  82.7490005
  19.1860008  80.7610016  81.2460022  18.2110004  82.1380005  82.6269989
  18.4710007  82.9670029  83.3190002  17.7159996  81.3420029  83.2239990
  17.1970005  82.6350021  81.5970001  16.7250004  81.8150024  80.7620010
  16.8290005  83.8399963  81.6279984  20.8570004  83.6600037  82.1760025
  20.3540001  84.7860031  82.1839981  21.8899994  83.3590012  82.9970016
  22.2730007  82.4380035  83.0029984  22.4939995  84.3259964  83.8970032
  21.7010002  84.7129974  84.5189972  23.5370007  83.6309967  84.8089981
  24.3160000  83.1569977  84.1750031  23.0160007  82.8140030  85.3539963
  24.2350006  84.5380020  85.8489990  24.8630009  85.2750015  85.3050003
  23.2390003  85.3229980  86.7190018  22.5270004  84.6309967  87.2170029
  22.6590004  86.0449982  86.1060028  23.7830009  85.8990021  87.4980011
  25.1700001  83.7070007  86.7409973  25.9389992  83.1940002  86.1240005
  24.5939999  82.9359970  87.2949982  25.6860008  84.3610001  87.4749985
  23.1049995  85.5329971  83.1829987  22.8419991  86.6809998  83.5380020
  23.8680000  85.3140030  82.0920029  24.0890007  84.3840027  81.8119965
  24.3600006  86.3980026  81.2580032  24.9200001  87.0609970  81.9020004
  25.3470001  85.8899994  80.1800003  24.9619999  84.9369965  79.7590027
  26.3020000  85.6660004  80.7009964  25.5949993  86.8759995  79.0149994
  25.7870007  87.9000015  79.4029999  24.7070007  86.9189987  78.3489990
  26.7900009  86.4479980  78.1689987  26.6550007  86.0899963  76.9950027
  27.9969997  86.4960022  78.7730026  28.7870007  86.1699982  78.2529984
  28.0699997  86.7809982  79.7279968  23.2819996  87.2779999  80.6320038
  23.3910007  88.5070038  80.6149979  22.1889992  86.6669998  80.1299973
  22.1340008  85.6709976  80.1230011  21.0429993  87.3799973  79.5979996
  21.3939991  88.0019989  78.7890015  20.0070000  86.3750000  79.0309982
  19.6900005  85.6949997  79.8499985  20.5179996  85.7460022  78.2699966
  18.7350006  87.0009995  78.4049988  18.1889992  87.6019974  79.1620026
  18.0580006  86.1849976  78.0719986  19.0380001  87.8750000  77.1890030
  19.6429996  87.3700027  76.2040024  18.6459999  89.0729980  77.1839981
  20.3889999  88.3140030  80.6210022  20.0869999  89.4720001  80.3270035
  20.2110004  87.8550034  81.8789978  20.4090004  86.9020004  82.0960007
  19.8029995  88.7050018  82.9830017  18.8659992  89.1650009  82.7080002
  19.5650005  87.8570023  84.2610016  19.4529991  88.5370026  85.1320038
  20.4570007  87.2200012  84.4420013  18.3139992  86.9639969  84.1829987
  18.3659992  86.3440018  83.2620010  17.4099998  87.6009979  84.0810013
  18.1690006  86.0000000  85.3820038  18.9729996  85.2379990  85.2969971
  17.2040005  85.4560013  85.2929993  18.2840004  86.6269989  86.7839966
  19.2789993  87.1050034  86.9110031  18.1790009  85.8450012  87.5660019
  17.2399998  87.6579971  87.0199966  16.3470001  87.2269974  87.3330002
  17.0580006  88.2210007  86.1650009  17.5779991  88.3109970  87.7559967
  20.7590008  89.8550034  83.3330002  20.3390007  91.0039978  83.4889984
  22.0730000  89.5729980  83.4499969  22.3850002  88.6309967  83.3570023
  23.1030006  90.5520020  83.7639999  22.8080006  91.0500031  84.6760025
  24.4669991  89.8529968  84.0029984  25.2719994  90.6080017  84.1269989
  24.7080002  89.2450027  83.1050034  24.5149994  88.9300003  85.2409973
  23.6350002  88.2519989  85.2210007  25.7700005  88.0469971  85.1910019
  26.6870003  88.6750031  85.2129974  25.7819996  87.4359970  84.2630005
  25.7889996  87.3580017  86.0619965  24.4489994  89.7160034  86.5589981
  23.5109997  90.3069992  86.6220016  25.3129997  90.4089966  86.6429977
  24.4750004  89.0149994  87.4209976  23.3059998  91.6620026  82.7310028
  23.5039997  92.8300018  83.0759964  23.2870007  91.3069992  81.4290009
  23.0970001  90.3560028  81.1969986  23.7490005  92.1600037  80.3379974
  24.7810001  92.3809967  80.5640030  23.7859993  91.3779984  78.9820023
  22.7830009  90.9570007  78.7559967  24.4710007  90.5139999  79.1179962
  24.2469997  92.1490021  77.8619995  23.5489998  92.7529984  77.5989990
  23.0939999  93.5410004  80.1829987  23.8610001  94.4940033  80.0250015
  21.7800007  93.7990036  80.2549973  20.7320004  92.7770004  80.1740036
  20.3999996  92.5339966  81.2060013  21.0669994  91.8479996  79.6650009
  21.2479992  95.1279984  79.9469986  21.6840000  95.4700012  79.0199966
  19.7280006  94.9110031  79.8190002  19.2730007  95.6070023  79.0830002
  19.2119999  95.0309982  80.7959976  19.6079998  93.4479980  79.3880005
  18.6119995  93.0100021  79.6110001  19.8139992  93.3590012  78.2990036
  21.5750008  96.1500015  81.0230026  21.9529991  97.2770004  80.6959991
  21.4349995  95.7740021  82.3119965  21.1000004  94.8570023  82.5139999
  21.7919998  96.6039963  83.4499969  21.2420006  97.5299988  83.3669968
  21.3759995  95.8840027  84.7610016  21.8349991  94.8720016  84.7710037
  20.2740002  95.7450027  84.7330017  21.7409992  96.5839996  86.0920029
  22.8479996  96.6279984  86.1740036  21.2019997  98.0199966  86.1800003
  20.0939999  98.0250015  86.0950012  21.6240005  98.6559982  85.3720016
  21.4790001  98.4720001  87.1559982  21.2210007  95.7620010  87.2819977
  21.6369991  94.7320023  87.2570038  20.1119995  95.6940002  87.2519989
  21.5170002  96.2369995  88.2419968  23.2740002  96.9720001  83.4660034
  23.6490002  98.1320038  83.6510010  24.1569996  95.9820023  83.1959991
  23.8220005  95.0540009  83.0510025  25.5960007  96.1999969  83.0930023
  26.0610008  95.2320023  82.9739990  25.9270000  96.7129974  83.9830017
  26.0079994  97.0439987  81.9120026  26.8439999  97.9369965  82.0350037
  25.4249992  96.8030014  80.7220001  24.7800007  96.0500031  80.6139984
  25.6930008  97.5889969  79.5309982  26.7590008  97.5719986  79.3600006
  24.9960003  96.9720001  78.2949982  23.8959999  97.0879974  78.3939972
  25.2099991  95.8820038  78.2919998  25.4729996  97.5569992  76.9430008
  25.3120003  98.6559982  76.9270020  24.8829994  97.1029968  76.1169968
  26.9480000  97.2600021  76.6979980  27.7709999  98.2089996  76.6159973
  27.3279991  96.0589981  76.6389999  25.3199997  99.0609970  79.6740036
  26.1000004  99.9509964  79.3290024  24.1350002  99.3600006  80.2539978
  23.5000000  98.6350021  80.5100021  23.7259998 100.7160034  80.5739975
  23.7259998 101.2959976  79.6620026  22.2959995 100.6920013  81.1760025
  22.3369999 100.0899963  82.1090012  21.6200008 100.1529999  80.4779968
  21.6940002 102.0839996  81.4879990  21.3150005 102.5559998  80.5559998
  22.4680004 102.7630005  81.9079971  20.5590000 101.9940033  82.5039978
  19.3950005 101.7220001  82.1070023  20.8209991 102.2279968  83.7170029
  24.6720009 101.4069977  81.5589981  25.1009998 102.5459976  81.3600006
  25.0540009 100.6900024  82.6360016  24.6809998  99.7760010  82.7770004
  25.9699993 101.1500015  83.6569977  25.5629997 102.0569992  84.0790024
  26.0200005 100.0579987  84.7570038  26.3129997  99.0970001  84.2829971
  24.9799995  99.9339981  85.1269989  26.9580002 100.3089981  85.9520035
  26.6110001 101.2139969  86.4960022  27.9790001 100.5289993  85.5709991
  27.0849991  98.9059982  87.1090012  25.3269997  98.7020035  87.5110016
  24.7520008  98.3349991  86.6340027  24.8780003  99.6620026  87.8440018
  25.1919994  97.9619980  88.3280029  27.3700008 101.4980011  83.1429977
  27.9099998 102.5690002  83.4329987  27.9619999 100.6169968  82.3119965
  27.5319996  99.7330017  82.1439972  29.2019997 100.8600006  81.6019974
  29.9540005 101.1159973  82.3339996  29.6639996  99.5609970  80.8880005
  30.5100002  99.7939987  80.2060013  28.8099995  99.1839981  80.2860031
  30.1450005  98.4720001  81.8730011  29.3349991  98.2070007  82.5859985
  30.9650002  98.9160004  82.4779968  30.7019997  97.1800003  81.2379990
  31.2970009  96.6190033  81.9899979  31.3780003  97.4010010  80.3850021
  29.5620003  96.3089981  80.7880020  29.1879997  95.6360016  81.4260025
  29.0930004  96.2799988  79.5459976  28.2119999  95.3980026  79.1360016
  27.9109993  94.6449966  79.7210007  27.8740005  95.5350037  78.2050018
  29.4389992  97.1880035  78.6719971  29.8719997  97.9909973  79.0810013
  28.8419991  97.2630005  77.8730011  29.1739998 102.0270004  80.6090012
  30.0769997 102.8659973  80.5879974  28.1170006 102.1250000  79.7730026
  27.3990002 101.4329987  79.7839966  27.9260006 103.1979980  78.8160019
  28.8160000 103.2279968  78.2040024  26.7080002 102.8489990  77.9150009
  25.7779999 102.8450012  78.5230026  26.8530006 101.8280029  77.5029984
  26.5319996 103.7919998  76.7320023  25.3829994 103.9150009  76.2279968
  27.5510006 104.3239975  76.2149963  27.7929993 104.5920029  79.4560013
  28.3920002 105.5749969  79.0110016  27.0200005 104.6880035  80.5599976
  26.5330009 103.8830032  80.8899994  26.7600002 105.9179993  81.2870026
  26.3080006 106.6060028  80.5889969  25.7159996 105.6569977  82.4049988
  26.0009995 104.7300034  82.9479980  24.7430000 105.4540024  81.9089966
  25.5340004 106.7880020  83.4400024  25.4829998 107.7570038  82.9000015
  26.4150009 106.8290024  84.1169968  24.2520008 106.6689987  84.2789993
  23.3710003 106.7620010  83.6080017  24.2010002 107.4810028  85.0350037
  24.2880001 105.3430023  84.9909973  25.0499992 105.1589966  85.6129990
  23.3939991 104.3710022  84.8499985  23.5300007 103.2360001  85.5080032
  24.2709999 103.1200027  86.1699982  22.8369999 102.5279999  85.3730011
  22.3390007 104.4739990  84.0770035  22.1930008 105.3099976  83.5469971
  21.7590008 103.6679993  83.9619980  27.9969997 106.6460037  81.8130035
  28.0990009 107.8740005  81.7539978  28.9990005 105.8970032  82.3099976
  28.8969994 104.9069977  82.3679962  30.2749996 106.4329987  82.7340012
  30.0869999 107.1500015  83.5189972  31.1250000 105.2870026  83.3010025
  31.3509998 104.5329971  82.5159988  30.5760002 104.7770004  84.1220016
  32.0839996 105.6679993  83.7129974  31.0629997 107.1650009  81.6380005
  31.6119995 108.2450027  81.8679962  31.1009998 106.6159973  80.4010010
  30.6480007 105.7450027  80.2289963  31.7590008 107.2350006  79.2580032
  32.8009987 107.3669968  79.5090027  31.6340008 106.3539963  77.9830017
  32.2519989 106.8180008  77.1839981  30.5809994 106.3440018  77.6279984
  32.1010017 104.8970032  78.1709976  31.3980007 104.3509979  78.8349991
  33.0929985 104.9169998  78.6699982  32.2869987 104.1119995  76.8649979
  32.6640015 103.0910034  77.0879974  33.0070000 104.6439972  76.2070007
  30.9519997 104.0199966  76.1920013  30.1359997 104.3799973  76.6439972
  30.7549992 103.5459976  74.9690018  29.5270004 103.5270004  74.4970016
  29.3470001 103.2060013  73.5670013  28.7870007 103.8349991  75.0950012
  31.7299995 103.0999985  74.2060013  32.6720009 103.1299973  74.5400009
  31.5209999 102.7549973  73.2910004  31.1800003 108.6080017  78.9150009
  31.9009991 109.5849991  78.6999969  29.8320007 108.7060013  78.9110031
  29.2870007 107.8889999  79.0830002  29.0900002 109.9280014  78.7020035
  29.3859997 110.3330002  77.7450027  27.5830002 109.6100006  78.6729965
  27.2439995 109.1969986  79.6470032  27.3710003 108.8570023  77.8850021
  26.9890003 110.5220032  78.4469986  29.3850002 110.9980011  79.7500000
  29.5520000 112.1750031  79.4290009  29.4939995 110.6029968  81.0380020
  29.3120003 109.6520004  81.2779999  29.9020004 111.4970016  82.1100006
  29.2070007 112.3239975  82.1200027  29.8360004 110.8010025  83.4980011
  30.4619999 109.8830032  83.4950027  28.7870007 110.4850006  83.6800003
  31.5629997 111.7789993  85.1159973  32.3549995 111.2620010  84.7900009
  30.2719994 111.6959991  84.6330032  31.5529995 112.6819992  86.1259995
  32.4510002 112.9449997  86.6859970  30.3449993 113.1770020  86.3349991
  29.5330009 112.5339966  85.4089966  28.4680004 112.7249985  85.3730011
  31.2900009 112.1050034  81.9169998  31.4699993 113.3130035  82.0550003
  32.3059998 111.2990036  81.5459976  32.1640015 110.3150024  81.4720001
  33.6320000 111.8059998  81.2050018  33.9280014 112.4449997  82.0230026
  34.6809998 110.6979980  81.1559982  34.2270012 109.7799988  80.7279968
  35.9189987 111.0630035  80.3089981  36.3740005 112.0120010  80.6669998
  35.6559982 111.1669998  79.2350006  36.6809998 110.2600021  80.3939972
  35.1080017 110.4290009  82.6119995  34.2470016 110.0690002  83.2160034
  35.5120010 111.3519974  83.0790024  35.9059982 109.6559982  82.6439972
  33.6599998 112.7399979  79.9950027  34.3110008 113.7890015  80.0230026
  32.9080009 112.4309998  78.9169998  32.4410019 111.5510025  78.8639984
  32.7280006 113.3369980  77.7959976  33.7080002 113.5970001  77.4240036
  31.9069996 112.6579971  76.6669998  31.6259995 113.4010010  75.8909988
  30.9740009 112.2320023  77.0960007  32.6759987 111.5479965  75.9629974
  33.9329987 111.4960022  76.0510025  32.0209999 110.7910004  75.1920013
  32.0919991 114.6780014  78.1900024  32.5600014 115.7470016  77.7900009
  31.0380001 114.6610031  79.0339966  30.6259995 113.7929993  79.2990036
  30.4619999 115.8499985  79.6309967  30.1690006 116.5139999  78.8310013
  29.2099991 115.4629974  80.4400024  29.4699993 114.7770004  81.2740021
  28.4810009 114.9420013  79.7819977  28.7150002 116.3639984  80.8600006
  31.4279995 116.6309967  80.5230026  31.5419998 117.8489990  80.4219971
  32.1940002 115.9430008  81.3939972  32.0579987 114.9599991  81.4919968
  33.2109985 116.5309982  82.2509995  32.7340012 117.2689972  82.8779984
  33.8250008 115.4179993  83.1389999  34.1990013 114.6100006  82.4749985
  33.0149994 114.9779968  83.7590027  34.9889984 115.8330002  84.0660019
  35.8240013 116.2259979  83.4469986  34.5740013 116.9339981  85.0550003
  33.7179985 116.5989990  85.6800003  34.2750015 117.8560028  84.5120010
  35.4249992 117.1959991  85.7200012  35.5209999 114.5940018  84.8020020
  35.8689995 113.8339996  84.0699997  34.7220001 114.1360016  85.4229965
  36.3769989 114.8649979  85.4560013  34.3139992 117.2470016  81.4800034
  34.6710014 118.3880005  81.7770004  34.8300018 116.6100006  80.4110031
  34.5559998 115.6709976  80.2190018  35.7669983 117.2060013  79.4800034
  36.6290016 117.5350037  80.0410004  36.2190018 116.1429977  78.4449997
  35.3219986 115.7509995  77.9179993  36.6669998 115.2969971  79.0090027
  37.2430000 116.6549988  77.4079971  38.0789986 117.1190033  77.9739990
  36.7879982 117.4530029  76.7819977  37.8450012 115.5800018  76.4869995
  38.2879982 114.7399979  77.0640030  38.6520004 116.0309982  75.8710022
  36.7649994 115.1080017  75.5589981  36.5289993 115.6780014  74.7720032
  36.0400009 114.0100021  75.7099991  35.0550003 113.7519989  74.8750000
  34.8559990 114.3619995  74.1080017  34.5299988 112.9260025  75.0839996
  36.1920013 113.1200027  76.6630020  36.9160004 113.2239990  77.3450012
  35.5359993 112.3639984  76.6520004  35.2010002 118.4359970  78.7730026
  35.8489990 119.4779968  78.6650009  33.9300003 118.3560028  78.3219986
  33.4440002 117.4889984  78.4000015  33.1980019 119.4789963  77.7369995
  33.7859993 119.8479996  76.9100037  31.8220005 119.0849991  77.1869965
  31.2000008 118.6380005  77.9919968  31.9589996 118.1389999  76.1289978
  32.2639999 117.3190002  76.5230026  31.0730000 120.2929993  76.5930023
  31.7010002 120.8040009  75.8320007  30.7940006 121.0279999  77.3779984
  30.1340008 119.9589996  76.1029968  33.0330009 120.6510010  78.6969986
  33.2729988 121.8020020  78.3379974  32.6580009 120.3860016  79.9670029
  32.4029999 119.4560013  80.2190018  32.5859985 121.3799973  81.0289993
  31.9419994 122.1729965  80.6780014  31.9740009 120.7990036  82.3290024
  31.9729996 121.5749969  83.1240005  32.5929985 119.9459991  82.6819992
  29.5149994 121.1179962  81.7190018  29.5769997 122.0650024  81.4039993
  30.5499992 120.3310013  82.1839981  28.3820000 120.3740005  81.7929993
  27.4080009 120.7539978  81.4850006  28.6149998 119.1669998  82.2809982
  29.9820004 119.1409988  82.5260010  30.4510002 118.2600021  82.9440002
  33.9189987 122.0429993  81.3750000  33.9840012 123.2529984  81.5930023
  35.0190010 121.2649994  81.4359970  34.9350014 120.2760010  81.3369980
  36.3699989 121.7630005  81.6350021  36.3689995 122.3379974  82.5490036
  37.3450012 120.5690002  81.8050003  37.2799988 119.9250031  80.9029999
  36.9970016 119.9619980  82.6679993  38.8310013 120.9290009  82.0339966
  39.1990013 121.5039978  81.1579971  39.0309982 121.7959976  83.2880020
  38.6489983 121.2699966  84.1890030  38.4970016 122.7659988  83.1880035
  40.1110001 122.0080032  83.4359970  39.6889992 119.6579971  82.1240005
  39.5890007 119.0530014  81.1969986  39.3759995 119.0370026  82.9889984
  40.7599983 119.9250031  82.2509995  36.8720016 122.7050018  80.5360031
  37.4819984 123.7419968  80.8079987  36.5919991 122.3730011  79.2590027
  36.0750008 121.5400009  79.0749969  37.1370010 123.0270004  78.0869980
  38.1980019 122.8270035  78.1050034  36.5660019 122.3499985  76.8239975
  35.4659996 122.4929962  76.7590027  36.7709999 121.2590027  76.8560028
  37.0359993 122.7620010  75.9049988  37.0089989 124.5589981  77.9619980
  38.0169983 125.1569977  77.5729980  35.9309998 125.2979965  78.2600021
  34.5789986 124.7779999  78.4609985  34.5559998 123.9599991  79.2119980
  34.1839981 124.4120026  77.4899979  35.9290009 126.7509995  78.1129990
  36.3499985 127.0159988  77.1549988  34.4440002 127.1500015  78.2160034
  34.0229988 127.2149963  77.1900024  34.2789993 128.1239929  78.7249985
  33.7779999 125.9830017  78.9509964  33.9150009 126.0970001  80.0469971
  32.6940002 125.8939972  78.7249985  36.7859993 127.4199982  79.1770020
  37.4630013 128.3990021  78.8629990  36.7890015 126.9229965  80.4319992
  36.2010002 126.1510010  80.6630020  37.6980019 127.3820038  81.4729996
  37.5680008 128.4479980  81.5879974  37.4469986 126.6610031  82.8290024
  38.0830002 127.1080017  83.6230011  37.7039986 125.5839996  82.7379990
  36.0159988 126.7689972  83.2890015  35.3429985 128.0030060  83.2900009
  35.8460007 128.8919983  82.9390030  34.0260010 128.0989990  83.7590027
  33.5229988 129.0540009  83.7600021  33.3689995 126.9619980  84.2419968
  32.0410004 127.0780029  84.7190018  31.7439995 126.2149963  85.0189972
  35.3470001 125.6340027  83.7829971  35.8540001 124.6809998  83.8020020
  34.0299988 125.7269974  84.2549973  33.5340004 124.8430023  84.6279984
  39.1590004 127.1480026  81.0920029  40.0159988 128.0220032  81.2340012
  39.4469986 125.9509964  80.5449982  38.7290001 125.2610016  80.4789963
  40.7439995 125.5390015  80.0579987  41.4350014 125.5839996  80.8870010
  40.5989990 124.0849991  79.5400009  40.1489983 124.0830002  78.5240021
  39.8870010 123.5490036  80.2040024  41.8860016 123.2440033  79.5309982
  42.7029991 123.8479996  79.0820007  42.2900009 122.8509979  80.9599991
  41.4690018 122.2819977  81.4469986  42.5159988 123.7509995  81.5709991
  43.1930008 122.2060013  80.9359970  41.7010002 121.9800034  78.6750031
  41.4529991 122.2460022  77.6250000  40.8829994 121.3489990  79.0830002
  42.6360016 121.3809967  78.6729965  41.2750015 126.4440002  78.9380035
  42.4160004 126.9130020  78.9710007  40.4210014 126.7580032  77.9390030
  39.5229988 126.3239975  77.9089966  40.6889992 127.6940002  76.8690033
  41.5909996 127.3659973  76.3750000  39.4930000 127.6200027  75.8769989
  38.5709991 127.9779968  76.3830032  39.3310013 126.5579987  75.5910034
  39.6889992 128.4129944  74.5920029  40.8479996 128.6049957  74.1429977
  38.6590004 128.7559967  73.9479980  40.9379997 129.1360016  77.3539963
  41.9029999 129.7949982  76.9580002  40.0859985 129.6470032  78.2720032
  39.2949982 129.1199951  78.5709991  40.2150002 130.9680023  78.8570023
  40.2220001 131.6770020  78.0419998  38.9710007 131.2200012  79.7559967
  38.9930000 130.5249939  80.6220016  38.0540009 131.0019989  79.1679993
  38.8510017 132.6479950  80.2699966  39.3790016 133.5939941  79.6279984
  38.1150017 132.8529968  81.2750015  41.5309982 131.1589966  79.6309967
  42.2669983 132.1320038  79.4410019  41.9020004 130.1759949  80.4769974
  41.2910004 129.4089966  80.6610031  43.1969986 130.1340027  81.1250000
  43.3339996 131.0760040  81.6360016  43.2919998 128.9819946  82.1579971
  44.3310013 128.9470062  82.5520020  43.0629997 128.0169983  81.6589966
  42.4119987 129.1219940  83.3799973  42.1399994 127.9629974  84.1309967
  42.5180016 127.0110016  83.7890015  41.4099998 128.0279999  85.3239975
  41.2210007 127.1279984  85.8909988  40.9399986 129.2619934  85.7860031
  40.3820000 129.3159943  86.7089996  41.9280014 130.3569946  83.8590012
  42.1310005 131.2740021  83.3249969  41.1920013 130.4259949  85.0500031
  40.8279991 131.3789978  85.4049988  44.3820000 130.0480042  80.1559982
  45.3720016 130.7689972  80.3040009  44.2910004 129.2089996  79.1009979
  43.5120010 128.5939941  79.0100021  45.3050003 129.1159973  78.0670013
  46.2369995 128.8919983  78.5640030  45.0250015 127.9339981  77.1050034
  43.9980011 128.0399933  76.6940002  45.0400009 127.0070038  77.7180023
  46.0279999 127.8140030  75.9349976  47.0680008 127.8560028  76.3229980
  45.8919983 128.6540070  75.2210007  45.8479996 126.5059967  75.1579971
  45.3409996 126.4860001  74.0309982  46.2840004 125.3769989  75.7630005
  46.1819992 124.5080032  75.2789993  46.7029991 125.4260025  76.6699982
  45.5719986 130.4170074  77.3119965  46.7220001 130.8070068  77.0889969
  44.5050011 131.1580048  76.9499969  43.5859985 130.7949982  77.0869980
  44.5929985 132.5030060  76.4150009  45.2050018 132.4629974  75.5260010
  43.1800003 132.9960022  76.0100021  42.4949989 132.8609924  76.8740005
  42.8089981 132.3370056  75.1959991  43.0950012 134.4620056  75.5510025
  43.8170013 134.6260071  74.7220001  43.3759995 135.1399994  76.3860016
  41.6769981 134.8339996  75.0770035  40.9710007 134.6380005  75.9110031
  41.4029999 134.1629944  74.2350006  41.5530014 136.3000031  74.6309967
  42.2360001 136.5000000  73.7779999  41.8180008 136.9790039  75.4690018
  40.1660004 136.6089935  74.2009964  39.4959984 136.4550018  74.9810028
  39.8849983 136.0059967  73.4020004  40.0909996 137.6020050  73.9000015
  45.2659988 133.5090027  77.3539963  46.1279984 134.2929993  76.9489975
  44.9129982 133.4739990  78.6559982  44.2000008 132.8459930  78.9570007
  45.5159988 134.2910004  79.6930008  45.3880005 135.3229980  79.4000015
  44.7560005 134.0939941  81.0329971  44.5999985 133.0050049  81.1859970
  43.7490005 134.5520020  80.9280014  45.4430008 134.6450043  82.2979965
  45.6510010 135.7259979  82.1490021  46.4109993 134.1230011  82.4550018
  44.5709991 134.4279938  83.5520020  44.3110008 133.3489990  83.5979996
  43.6150017 134.9830017  83.4369965  45.2340012 134.7929993  84.8929977
  46.1839981 134.2310028  85.0210037  44.5499992 134.5269928  85.7269974
  45.5309982 136.2480011  84.9869995  44.6800003 136.8090057  84.7819977
  46.2820015 136.5229950  84.3219986  45.8499985 136.4889984  85.9469986
  47.0229988 134.1060028  79.8759995  47.7729988 135.0809937  79.9609985
  47.5169983 132.8489990  79.8919983  46.8959999 132.0700073  79.8769989
  48.9399986 132.5529938  79.9899979  49.3009987 133.0520020  80.8769989
  49.2229996 131.0319977  80.1389999  50.3180008 130.8450012  80.1380005
  48.7890015 130.5030060  79.2639999  48.6609993 130.4349976  81.3909988
  48.7150002 130.9980011  82.6389999  49.2610016 131.9010010  82.8710022
  48.0070000 130.2279968  83.5299988  47.9939995 130.3309937  84.5009995
  47.4959984 129.1419983  82.8820038  47.9119987 129.2160034  81.5279999
  47.5690002 128.1900024  80.6480026  47.9239998 128.1920013  79.6269989
  46.7340012 127.1709976  81.1050034  46.4350014 126.3809967  80.4319992
  46.6959991 128.1100006  83.3450012  46.3680000 128.0630035  84.3730011
  46.2960014 127.1389999  82.4250031  45.6529999 126.3349991  82.7509995
  49.7830009 133.1179962  78.8529968  50.8489990 133.6869965  79.0859985
  49.3079987 133.0149994  77.5920029  48.4510002 132.5339966  77.4219971
  49.9720001 133.6060028  76.4430008  50.9770012 133.2129974  76.4120026
  49.2490005 133.1840057  75.1370010  48.1800003 133.4799957  75.2080002
  49.2820015 132.0749969  75.0910034  49.8520012 133.7850037  73.8430023
  50.9379997 133.5579987  73.7850037  49.7290001 134.8890076  73.8310013
  49.1679993 133.2389984  72.5869980  48.4720001 133.9559937  71.8610001
  49.3740005 131.9320068  72.3040009  48.9430008 131.5460052  71.4879990
  49.9519997 131.3760071  72.9010010  50.1110001 135.1280060  76.5179977
  51.1780014 135.6909943  76.2630005  49.0340004 135.8359985  76.9250031
  48.1689987 135.3719940  77.0989990  49.0740013 137.2640076  77.1910019
  49.4420013 137.7500000  76.3000031  47.6450005 137.8040009  77.4629974
  47.1699982 137.1820068  78.2509995  47.0569992 137.6629944  76.5309982
  47.5820007 139.2890015  77.9029999  48.1660004 139.9149933  77.1949997
  48.0270004 139.4060059  78.9150009  46.1529999 139.8240051  77.9329987
  45.5169983 139.9349976  76.8489990  45.6500015 140.1620026  79.0390015
  50.0299988 137.6710052  78.3140030  50.8250008 138.6049957  78.1760025
  50.0099983 136.9349976  79.4459991  49.3380013 136.2059937  79.5510025
  50.9090004 137.1410065  80.5690002  50.7919998 138.1620026  80.9020004
  50.5260010 136.1799927  81.7259979  50.8470001 135.1510010  81.4560013
  49.4189987 136.1479950  81.8130035  51.1440010 136.5639954  83.0920029
  52.1170006 137.0789948  82.9430008  51.3429985 135.6450043  83.6839981
  50.2179985 137.4570007  83.9209976  49.2029991 136.9400024  84.4700012
  50.4930000 138.6820068  84.0449982  52.3839989 136.9429932  80.1849976
  53.2550011 137.7539978  80.5049973  52.6809998 135.8769989  79.4140015
  51.9690018 135.2120056  79.2030029  53.9770012 135.5899963  78.8349991
  54.6879997 135.5070038  79.6439972  53.8899994 134.2169952  78.1149979
  52.9280014 134.1979980  77.5599976  53.8279991 133.4259949  78.8929977
  54.9930000 133.8609924  77.1019974  55.9809990 133.8919983  77.6100006
  55.0120010 134.6219940  76.2919998  54.7249985 132.2209930  76.3610001
  55.9239998 132.4349976  75.0179977  56.9300003 132.6770020  75.4229965
  55.6220016 133.2579956  74.3349991  56.0159988 131.5050049  74.4169998
  54.5250015 136.6750031  77.9069977  55.6839981 137.0859985  78.0139999
  53.6800003 137.2109985  77.0009995  52.7639999 136.8329926  76.8899994
  54.0099983 138.3529968  76.1660004  54.8989983 138.1069946  75.6050034
  52.8510017 138.6260071  75.1719971  51.9239998 138.8139954  75.7559967
  52.6749992 137.6999969  74.5839996  53.0589981 139.8150024  74.2009964
  53.2229996 140.7579956  74.7649994  52.1399994 139.9470062  73.5899963
  54.2239990 139.5939941  73.2360001  54.2060013 138.5850067  72.4789963
  55.1559982 140.4420013  73.1949997  54.3250008 139.6179962  76.9690018
  55.3230019 140.3029938  76.7360001  53.4980011 139.9219971  77.9909973
  52.6870003 139.3659973  78.1510010  53.6949997 141.0310059  78.9049988
  53.7550011 141.9270020  78.3040009  52.4679985 141.1470032  79.8430023
  52.3510017 140.1950073  80.4049988  51.5649986 141.2610016  79.2060013
  52.4900017 142.3090057  80.8590012  53.3450012 142.1600037  81.5530014
  52.6539993 143.6739960  80.1709976  51.8349991 143.8359985  79.4380035
  53.6240005 143.7369995  79.6340027  52.6180000 144.4940033  80.9189987
  51.2029991 142.2879944  81.6979980  51.1030006 141.3170013  82.2279968
  50.3149986 142.4250031  81.0449982  51.2120018 143.1029968  82.4530029
  54.9990005 140.9609985  79.7040024  55.7330017 141.9459991  79.8199997
  55.3569984 139.7729950  80.2340012  54.7249985 139.0019989  80.2050018
  56.6450005 139.5330048  80.8679962  56.7639999 140.2409973  81.6740036
  56.7439995 138.0760040  81.4079971  57.7760010 137.8609924  81.7600021
  56.4980011 137.3670044  80.5889969  55.8419991 137.7610016  82.5770035
  55.6469994 136.4049988  82.9000015  56.1049995 135.6410065  82.2900009
  54.8829994 136.0350037  84.0130005  54.7280006 134.9920044  84.2460022
  54.3339996 137.0160065  84.8399963  53.6119995 136.6260071  85.9869995
  53.3750000 137.4140015  86.4800034  55.2470016 138.7409973  83.3990021
  55.3610001 139.7929993  83.1809998  54.5089989 138.3699951  84.5319977
  54.0740013 139.1309967  85.1630020  57.8450012 139.7610016  79.9530029
  58.8079987 140.4329987  80.3249969  57.7949982 139.2369995  78.7109985
  57.0149994 138.6790009  78.4380035  58.8230019 139.4440002  77.7089996
  59.7599983 139.1150055  78.1320038  58.5159988 138.5729980  76.4629974
  57.5219994 138.8589935  76.0569992  58.4379997 137.5189972  76.8040009
  59.5660019 138.6589966  75.3339996  60.5660019 138.4329987  75.7620010
  59.5970001 139.6940002  74.9319992  59.2750015 137.6950073  74.1740036
  58.3050003 137.9609985  73.7009964  59.2070007 136.6390076  74.5110016
  60.3619995 137.8650055  73.1539993  60.2109985 138.4960022  72.3929977
  61.5169983 137.2089996  73.1380005  62.3530006 137.4170074  72.1380005
  63.2200012 136.9210052  72.0970001  62.1040001 138.0559998  71.4100037
  61.8740005 136.3580017  74.0759964  61.2779999 136.2369995  74.8690033
  62.7709999 135.9179993  74.0250015  59.0099983 140.9120026  77.3219986
  60.1300011 141.4199982  77.2379990  57.8889999 141.6360016  77.1299973
  57.0040016 141.1779938  77.1589966  57.8470001 143.0579987  76.8570023
  58.4160004 143.2389984  75.9570007  56.3709984 143.4700012  76.6009979
  55.7610016 143.1040039  77.4540024  56.0270004 142.9219971  75.6969986
  56.1110001 144.9880066  76.4329987  56.6870003 145.3849945  75.5699997
  56.4220009 145.5449982  77.3430023  54.6250000 145.2920074  76.2210007
  53.9729996 145.9429932  77.0419998  54.0629997 144.8159943  75.0859985
  53.0950012 145.0030060  74.9189987  54.6160011 144.2940063  74.4359970
  58.4570007 143.9459991  77.9390030  59.2249985 144.8659973  77.6500015
  58.1409988 143.6799927  79.2249985  57.5009995 142.9429932  79.4319992
  58.6080017 144.4629974  80.3580017  58.2890015 145.4819946  80.1959991
  57.9519997 143.9290009  81.6600037  58.2410011 142.8639984  81.7959976
  56.8510017 143.9510040  81.5100021  58.2980003 144.7079926  82.9479980
  59.3930016 144.6710052  83.1289978  57.8149986 144.1929932  83.8059998
  57.7989998 146.1670074  82.9000015  56.7260017 146.1470032  82.6129990
  58.3320007 146.7250061  82.0999985  57.8930016 146.9459991  84.2259979
  57.4119987 146.3719940  85.0469971  57.3730011 147.9219971  84.1230011
  59.3069992 147.2189941  84.6009979  59.7879982 147.7440033  83.8430023
  59.8260002 146.3359985  84.7799988  59.3409996 147.7980042  85.4649963
  60.1250000 144.4949951  80.5350037  60.7290001 145.5399933  80.7870026
  60.7750015 143.3249969  80.3919983  60.2540016 142.4969940  80.1979980
  62.2010002 143.1450043  80.6159973  62.4790001 143.6779938  81.5130005
  62.4830017 141.6549988  80.8399963  62.1010017 141.0740051  79.9739990
  63.9850006 141.3600006  81.0090027  64.4179993 141.9969940  81.8099976
  64.5380020 141.5429993  80.0630035  64.1360016 140.2969971  81.2959976
  61.7400017 141.1929932  82.1090012  60.6380005 141.2969971  82.0090027
  62.0709991 141.7839966  82.9889984  61.9599991 140.1230011  82.3099976
  63.0649986 143.7129974  79.4869995  64.2080002 144.1280060  79.6959991
  62.5169983 143.7879944  78.2549973  61.5600014 143.5339966  78.1320038
  63.2649994 144.0429993  77.0329971  63.9780006 143.2350006  76.9639969
  62.3349991 143.8939972  75.7910004  61.3849983 144.4320068  75.9980011
  62.0660019 142.8200073  75.6930008  62.8979988 144.4219971  74.4469986
  63.8810005 143.9440002  74.2460022  63.0489998 145.5220032  74.4879990
  61.9599991 144.1300049  73.2770004  60.8339996 144.6970062  73.2379990
  62.3450012 143.3450012  72.3679962  64.1490021 145.2960052  76.9420013
  65.3099976 145.1320038  76.5469971  63.7659988 146.5279999  77.3099976
  62.3750000 146.9360046  77.5279999  62.1699982 146.9179993  78.6200027
  61.6409988 146.2890015  77.0029984  64.6350021 147.6840057  77.0979996
  65.0309982 147.6470032  76.0940018  63.7150002 148.9029999  77.3099976
  64.0009995 149.7510071  76.6520004  63.7229996 149.2489929  78.3659973
  62.3180008 148.3639984  76.9879990  61.5060005 148.9660034  77.4499969
  62.1739998 148.3359985  75.8870010  65.8020020 147.6869965  78.0660019
  66.9359970 147.9490051  77.6620026  65.5329971 147.4029999  79.3550034
  64.5930023 147.2070007  79.6230011  66.5319977 147.3110046  80.4010010
  67.0820007 148.2389984  80.4160004  65.8610001 147.0870056  81.7789993
  66.6460037 147.0000000  82.5609970  65.2979965 146.1300049  81.7570038
  64.8899994 148.2070007  82.2149963  64.0830002 148.3000031  81.4570007
  64.2259979 147.8379974  83.5490036  64.9940033 147.7079926  84.3410034
  63.6599998 146.8869934  83.4449997  63.5219994 148.6369934  83.8669968
  65.5910034 149.5690002  82.3320007  65.9929962 149.8939972  81.3489990
  66.4290009 149.5099945  83.0589981  64.8730011 150.3410034  82.6849976
  67.5550003 146.2109985  80.1559982  68.7590027 146.4210052  80.3000031
  67.0960007 145.0149994  79.7320023  66.1149979 144.8569946  79.6449966
  67.9530029 143.9040070  79.3710022  68.5650024 143.6589966  80.2269974
  67.0569992 142.6869965  79.0309982  66.2659988 143.0350037  78.3320007
  66.5540009 142.3840027  79.9739990  67.7539978 141.4579926  78.4110031
  68.5589981 141.1289978  79.1019974  68.2360001 141.7200012  77.4440002
  66.8059998 140.2700043  78.1849976  66.3160019 140.0039978  79.1460037
  67.3639984 139.3890076  77.8000031  65.8030014 140.6970062  77.1520004
  66.1240005 141.2640076  76.3929977  64.5270004 140.3320007  77.0999985
  63.8059998 140.6900024  76.0559998  64.2480011 141.1309967  75.2750015
  62.8619995 140.3699951  75.9789963  63.9529991 139.5890045  78.0199966
  64.5039978 139.2429962  78.7799988  62.9980011 139.3139954  77.9069977
  68.9110031 144.1970062  78.2229996  70.1190033 143.9680023  78.3219986
  68.3949966 144.7850037  77.1200027  67.4160004 144.9589996  77.0479965
  69.2040024 145.2140045  76.0000000  69.7559967 144.3580017  75.6409988
  68.2850037 145.7339935  74.8779984  67.6930008 146.6080017  75.2229996
  67.5739975 144.9360046  74.5729980  68.8769989 146.0310059  73.9850006
  70.2269974 146.2890015  76.3639984  71.4089966 146.1909943  76.0260010
  69.8000031 147.3229980  77.1200027  68.8379974 147.3979950  77.3669968
  70.6709976 148.3710022  77.6159973  71.1650009 148.8099976  76.7620010
  69.8430023 149.4869995  78.3050003  69.1819992 149.0229950  79.0680008
  69.1859970 149.9340057  77.5289993  70.6880035 150.5930023  78.9840012
  71.4570007 150.9640045  78.2730026  71.2099991 150.1799927  79.8740005
  69.8430023 151.7870026  79.4219971  69.2929993 152.5039978  78.5419998
  69.7360001 152.0399933  80.6529999  71.7850037 147.8780060  78.5339966
  72.9479980 148.2619934  78.3919983  71.4619980 146.9720001  79.4789963
  70.5120010 146.7010040  79.6110001  72.4219971 146.3430023  80.3629990
  72.9530029 147.1470032  80.8499985  71.6780014 145.5160065  81.4430008
  71.1399994 144.6710052  80.9609985  70.9069977 146.1809998  81.8880005
  72.5390015 144.9750061  82.6080017  73.2080002 144.1820068  82.2089996
  73.4169998 146.0650024  83.2419968  72.7900009 146.9270020  83.5559998
  74.1890030 146.4219971  82.5260010  73.9349976 145.6649933  84.1399994
  71.6480026 144.3509979  83.6949997  70.9929962 143.5610046  83.2679977
  71.0000000 145.1250000  84.1589966  72.2740021 143.8970032  84.4929962
  73.4800034 145.5149994  79.6259995  74.6750031 145.6260071  79.9039993
  73.0820007 144.7160034  78.6090012  72.1129990 144.5910034  78.4140015
  74.0169983 144.0460052  77.7160034  74.6719971 143.4490051  78.3330002
  73.2939987 143.0850067  76.7369995  74.0139999 142.7250061  75.9720001
  72.4919968 143.6479950  76.2119980  72.6890030 141.8450012  77.4270020
  71.9250031 142.1620026  78.1669998  73.4739990 141.2749939  77.9700012
  71.9950027 140.9420013  76.4039993  70.8300018 141.1390076  76.0439987
  72.7320023 139.9259949  75.8919983  72.2929993 139.3070068  75.2399979
  73.6760025 139.7899933  76.1920013  74.9369965 144.9739990  76.9150009
  76.1470032 144.7530060  76.8339996  74.4000015 146.0650024  76.3229980
  73.4140015 146.2109985  76.3310013  75.2060013 147.0820007  75.6620026
  75.8199997 146.5749969  74.9329987  74.3430023 148.1170044  74.8939972
  75.0299988 148.8990021  74.5049973  73.6299973 148.6139984  75.5859985
  73.5670013 147.4960022  73.7020035  72.5410004 147.2239990  74.0279999
  74.0660019 146.5610046  73.3700027  73.4769974 148.4270020  72.4970016
  74.5309982 148.6459961  71.8359985  72.3659973 148.9270020  72.1780014
  76.1819992 147.8009949  76.5920029  77.3410034 148.0370026  76.2470016
  75.7409973 148.1349945  77.8249969  74.7789993 147.9940033  78.0449982
  76.5839996 148.6959991  78.8759995  75.9550018 148.8630066  79.7379990
  77.0339966 149.6049957  78.5039978  77.7009964 147.7799988  79.3119965
  78.8420029 148.2039948  79.4869995  77.4110031 146.4759979  79.4670029
  76.4680023 146.1620026  79.4000015  78.4000015 145.4470062  79.7089996
  78.9440002 145.7189941  80.6019974  77.6900024 144.1060028  79.9520035
  77.1259995 143.7839966  79.0500031  76.9649963 144.2079926  80.7870026
  78.4179993 143.3099976  80.2180023  79.4319992 145.3040009  78.5869980
  80.6320038 145.1999969  78.8420029  78.9970016 145.3430023  77.3089981
  78.0179977 145.3540039  77.1230011  79.8779984 145.3760071  76.1510010
  80.5189972 144.5079956  76.1989975  79.0550003 145.3170013  74.8389969
  78.4359970 146.2359924  74.7610016  78.3519974 144.4600067  74.9059982
  79.9069977 145.1519928  73.5579987  80.3489990 144.1329956  73.5719986
  80.7539978 145.8699951  73.5500031  79.1149979 145.3179932  72.2519989
  78.2149963 144.6670074  72.2620010  79.7450027 145.0410004  71.3789978
  78.7689972 146.7760010  72.1399994  79.5110016 147.4470062  72.1529999
  77.5469971 147.2810059  72.0790024  77.3649979 148.5870056  72.0849991
  78.1429977 149.2149963  72.0960007  76.4189987 148.8999939  72.0000000
  76.4459991 146.5749969  71.9909973  75.6100006 147.1139984  71.8880005
  76.4929962 145.5890045  71.8320007  80.7880020 146.6080017  76.1279984
  81.9869995 146.5240021  75.8619995  80.2470016 147.8000031  76.4449997
  79.2620010 147.8769989  76.5749969  81.0309982 149.0059967  76.6439972
  81.6080017 149.1690063  75.7460022  80.0930023 150.2290039  76.8249969
  79.3399963 149.9830017  77.6039963  79.5429993 150.3679962  75.8700027
  80.8040009 151.5460052  77.2210007  81.6360016 151.7530060  76.5149994
  81.2310028 151.4660034  78.2440033  79.8180008 152.7189941  77.2379990
  78.9049988 152.7859955  78.0670013  79.9950027 153.6820068  76.3040009
  79.3669968 154.4609985  76.2969971  80.7419968 153.6089935  75.6429977
  82.0500031 148.9140015  77.7799988  83.2109985 149.3009949  77.6350021
  81.6500015 148.3459930  78.9369965  80.6910019 148.1009979  79.0579987
  82.5240021 148.0879974  80.0690002  82.9869995 149.0319977  80.3150024
  81.7170029 147.5769958  81.2890015  81.3430023 146.5489960  81.0970001
  80.8249969 148.2310028  81.3960037  82.4889984 147.6170044  82.6250000
  83.3519974 146.9190063  82.5960007  81.8020020 147.2680054  83.4260025
  82.9769974 149.0410004  82.9649963  82.1340027 149.7369995  82.7630005
  83.8099976 149.3070068  82.2799988  83.4430008 149.2350006  84.4150009
  84.3339996 148.6069946  84.6289978  82.6309967 148.9660034  85.1240005
  83.8059998 150.6540070  84.6360016  83.0210037 151.2830048  84.3710022
  84.6279984 150.9049988  84.0500031  84.0510025 150.8410034  85.6299973
  83.6549988 147.1139984  79.7409973  84.8000031 147.3079987  80.1419983
  83.3700027 146.0599976  78.9540024  82.4199982 145.8719940  78.7139969
  84.3529968 145.1540070  78.3840027  84.8949966 144.6869965  79.1930008
  83.5910034 144.0599976  77.5889969  82.8109970 144.5769958  76.9879990
  83.0500031 143.4069977  78.3069992  84.3899994 143.1809998  76.6029968
  85.0429993 143.8190002  75.9690018  85.2770004 142.1609955  77.3320007
  84.6529999 141.4810028  77.9509964  86.0070038 142.6750031  77.9929962
  85.8379974 141.5449982  76.5979996  83.4240036 142.4830017  75.6340027
  82.7750015 143.2270050  75.1250000  82.7789993 141.7579956  76.1740036
  83.9990005 141.9389954  74.8539963  85.3939972 145.8549957  77.5059967
  86.5970001 145.6230011  77.6289978  84.9649963 146.7810059  76.6210022
  83.9860001 146.9210052  76.4929962  85.8710022 147.6380005  75.8639984
  86.5690002 146.9900055  75.3550034  85.1409988 148.4609985  74.7730026
  85.8249969 149.2350006  74.3639984  84.2600021 148.9830017  75.2040024
  83.6250000 146.7830048  73.5859985  83.0159988 146.6040039  74.3580017
  84.7239990 147.6150055  73.5979996  83.5279999 146.2610016  72.3379974
  82.7460022 145.5590057  72.0510025  84.4830017 146.7120056  71.5410004
  85.2340012 147.5700073  72.3349991  86.0879974 148.0980072  71.9280014
  86.7279968 148.5599976  76.7289963  87.9290009 148.7109985  76.4970016
  86.1429977 149.1779938  77.7770004  85.1579971 149.1040039  77.9089966
  86.8799973 149.9409943  78.7750015  87.4219971 150.7230072  78.2639999
  85.8990021 150.5919952  79.7880020  85.3330002 149.7760010  80.2850037
  85.1610031 151.2019958  79.2249985  86.5680008 151.4759979  80.8740005
  86.8809967 152.4450073  80.4309998  87.4739990 150.9810028  81.2829971
  85.6299973 151.7510071  82.0449982  85.9509964 151.3220062  83.1880035
  84.5630035 152.3899994  81.8570023  87.9120026 149.0989990  79.5289993
  89.0670013 149.4920044  79.7020035  87.5220032 147.8809967  79.9530029
  86.5670013 147.6130066  79.8570023  88.3809967 146.8950043  80.5759964
  88.8219986 147.3549957  81.4479980  87.5390015 145.6759949  81.0319977
  86.9779968 145.2899933  80.1549988  86.7880020 146.0330048  81.7689972
  88.3150024 144.4920044  81.6539993  89.0439987 144.1100006  80.9079971
  89.0950012 144.8999939  82.9150009  88.4059982 145.3029938  83.6880035
  89.8560028 145.6730042  82.6740036  89.6230011 144.0180054  83.3369980
  87.3489990 143.3390045  81.9670029  86.8079987 143.0269928  81.0479965
  86.6050034 143.6499939  82.7320023  87.9130020 142.4640045  82.3560028
  89.5419998 146.4609985  79.6890030  90.6829987 146.4089966  80.1360016
  89.3010025 146.2129974  78.3850021  88.3590012 146.2239990  78.0609970
  90.3030014 145.8150024  77.4059982  90.7109985 144.8699951  77.7320023
  89.6279984 145.6119995  76.0220032  89.1920013 146.5829926  75.7020035
  88.7839966 144.9029999  76.1660004  90.5609970 145.0789948  74.9079971
  90.9089966 144.0529938  75.1529999  91.4540024 145.7310028  74.8030014
  89.8730011 145.0559998  73.5380020  90.3290024 145.6829987  72.5759964
  88.7450027 144.3170013  73.4319992  88.2770004 144.2859955  72.5479965
  88.4010010 143.8170013  74.2259979  91.4820023 146.7890015  77.2929993
  92.6399994 146.3890076  77.1480026  91.2170029 148.1080017  77.4039993
  90.2720032 148.4160004  77.4830017  92.2470016 149.1219940  77.5479965
  92.9089966 149.0249939  76.7009964  91.6350021 150.5480042  77.4889984
  90.7890015 150.6029968  78.2070007  91.2149963 150.6840057  76.4700012
  92.6210022 151.6999969  77.8130035  93.5319977 151.6009979  77.1849976
  92.9280014 151.6490021  78.8789978  92.0120010 153.0740051  77.5469971
  91.7249985 153.3979950  76.3619995  91.8310013 153.8589935  78.5159988
  93.1380005 148.9539948  78.7850037  94.3570023 149.1020050  78.7109985
  92.5550003 148.6069946  79.9530029  91.5670013 148.4819946  79.9960022
  93.2839966 148.2290039  81.1549988  93.9879990 149.0189972  81.3679962
  92.3369980 148.0599976  82.3769989  92.9589996 147.9400024  83.2900009
  91.7419968 147.1289978  82.2639999  91.3550034 149.2270050  82.6029968
  90.7239990 148.9730072  83.4810028  90.6790009 149.3049927  81.7249985
  92.0559998 150.5820007  82.8339996  92.7839966 150.7469940  82.0110016
  92.6409988 150.5399933  83.7770004  91.1250000 151.8099976  82.8349991
  90.5569992 151.8600006  81.8809967  91.7310028 152.7359924  82.9349976
  90.1510010 151.7729950  83.9599991  90.6460037 151.6829987  84.8700027
  89.4869995 150.9790039  83.8580017  89.5979996 152.6529999  83.9810028
  94.1050034 146.9429932  80.9869995  95.2399979 146.8509979  81.4580002
  93.5419998 145.9210052  80.3050003  92.5979996 146.0099945  79.9960022
  94.1869965 144.6410065  80.0550003  94.4329987 144.1999969  81.0100021
  93.2480011 143.6840057  79.2620010  93.7919998 142.7420044  79.0390015
  92.9909973 144.1439972  78.2839966  91.9280014 143.2669983  79.9449997
  91.2590027 144.1540070  79.9720001  91.2160034 142.1889954  79.1179962
  91.8410034 141.2720032  79.0739975  91.0350037 142.5420074  78.0800018
  90.2409973 141.9219971  79.5780029  92.1090012 142.8009949  81.3929977
  92.6409988 143.5729980  81.9889984  92.6880035 141.8540039  81.4319992
  91.1169968 142.6250000  81.8619995  95.4990005 144.7109985  79.2669983
  96.5019989 144.0930023  79.6340027  95.5220032 145.4750061  78.1539993
  94.7060013 145.9889984  77.9020004  96.6370010 145.4559937  77.2070007
  96.7529984 144.4179993  76.9319992  96.3379974 146.1950073  75.8669968
  97.2470016 146.1929932  75.2289963  96.0550003 147.2539978  76.0490036
  95.2959976 145.5429993  75.1299973  94.4700012 145.6940002  75.5960007
  98.0299988 145.8569946  77.7149963  98.9759979 145.1300049  77.3880005
  98.2770004 146.9140015  78.5039978  97.3460007 148.0249939  78.7099991
  96.8239975 147.8690033  79.6790009  96.5940018 148.1239929  77.8980026
  99.6419983 147.3170013  78.8379974 100.2249985 147.3260040  77.9290009
  99.4980011 148.7279968  79.4369965 100.3889999 149.3569946  79.2249985
  99.3339996 148.6909943  80.5360031  98.2310028 149.2680054  78.7770004
  97.7610016 150.0939941  79.3529968  98.4599991 149.6179962  77.7480011
 100.3199997 146.3780060  79.8140030 101.5110016 146.1040039  79.6500015
  99.6009979 145.8939972  80.8539963  98.6439972 146.1499939  80.9670029
 100.1669998 144.9649963  81.8180008 101.0510025 145.4320068  82.2269974
  99.1869965 144.6580048  82.9820023  98.2500000 144.2299957  82.5660019
  98.9229965 145.6159973  83.4789963  99.7340012 143.6860046  84.0589981
  99.9570007 142.7120056  83.5729980 101.0309982 144.1940002  84.7080002
 100.8560028 145.1649933  85.2170029 101.8310013 144.3269958  83.9489975
 101.3929977 143.4620056  85.4619980  98.6849976 143.4089966  85.1449966
  97.7760010 142.9579926  84.6940002  98.4010010 144.3520050  85.6589966
  99.0879974 142.7030029  85.9020004 100.6169968 143.6609955  81.1750031
 101.7419968 143.2120056  81.3880005  99.7669983 143.0659943  80.3000031
  98.8700027 143.4720001  80.1419983 100.0790024 141.8370056  79.5780029
  99.2139969 141.5780029  78.9850006 100.3300018 141.0760040  80.3020020
 101.2500000 141.9649963  78.6320038 102.0879974 141.0679932  78.5230026
 101.3479996 143.1060028  77.9189987 100.6370010 143.8020020  77.9789963
 102.5090027 143.4329987  77.1149979 102.6650009 142.6199951  76.4209976
 102.2529984 144.7140045  76.2789993 101.9280014 145.5260010  76.9639969
 101.4049988 144.5019989  75.5930023 103.4749985 145.2059937  75.4639969
 103.8860016 144.3549957  74.8789978 104.2750015 145.5800018  76.1380005
 103.1080017 146.3309937  74.5000000 102.7559967 147.4490051  74.9639969
 103.1869965 146.1179962  73.2590027 103.8130035 143.5590057  77.9020004
 104.8180008 142.9380035  77.5490036 103.8209991 144.3070068  79.0309982
 103.0070038 144.8130035  79.3059998 104.9820023 144.3999939  79.9039993
 105.8130035 144.7319946  79.2990036 104.7939987 145.4239960  81.0559998
 103.8990021 145.1329956  81.6480026 104.5910034 146.4210052  80.6119995
 106.0250015 145.5110016  81.9980011 106.9130020 145.8029938  81.3960037
 106.2450027 144.5290070  82.4680023 105.8509979 146.5090027  83.1370010
 106.5139999 147.5820007  83.1060028 105.1009979 146.2019958  84.1029968
 105.3960037 143.0659943  80.5139999 106.5719986 142.6990051  80.5309982
 104.4130020 142.2929993  80.9970016 103.4739990 142.6280060  80.9909973
 104.5579987 140.9969940  81.6080017 105.1539993 141.1049957  82.5009995
 103.1169968 140.5809937  81.9909973 102.4769974 140.8269958  81.1169968
 102.8020020 141.2510071  82.8199997 102.7870026 139.1300049  82.3499985
 103.3610001 138.8110046  83.2470016 103.0849991 138.4629974  81.5130005
 101.0039978 138.9250031  82.6780014 100.9410019 139.7689972  84.2850037
 101.1630020 140.8529968  84.1859970 101.6800003 139.3289948  84.9889984
  99.9339981 139.6710052  84.7429962 105.2519989 139.9649963  80.7269974
 106.2109985 139.3040009  81.1360016 104.8239975 139.8639984  79.4540024
 104.0199966 140.3760071  79.1620026 105.5059967 139.1049957  78.4290009
 105.6500015 138.1009979  78.8010025 104.5729980 139.0480042  77.1979980
 104.4300003 140.0749969  76.8000031 103.5889969 138.6869965  77.5690002
 105.0270004 138.1069946  76.0690002 105.3330002 137.1459961  76.5360031
 105.9199982 138.5200043  75.5530014 103.9260025 137.7749939  75.0439987
 102.9720001 137.4900055  75.5380020 104.2509995 136.9109955  74.4270020
 103.7300034 138.9459991  74.1240005 104.1780014 138.9149933  73.2300034
 102.8320007 139.9140015  74.2720032 102.6340027 140.7610016  73.2789993
 103.1090012 140.6309967  72.4079971 101.9290009 141.4660034  73.3560028
 102.1149979 140.0659943  75.3610001 102.2720032 139.4349976  76.1210022
 101.4089966 140.7729950  75.4010010 106.8929977 139.6470032  78.0490036
 107.8720016 138.9029999  77.9749985 107.0270004 140.9739990  77.8249969
 106.2360001 141.5789948  77.8820038 108.2740021 141.6170044  77.4530029
 108.6330032 141.0829926  76.5849991 107.9990005 143.0919952  77.0530014
 107.7490005 143.7010040  77.9479980 107.1220016 143.1089935  76.3710022
 109.1589966 143.7220001  76.2949982 109.7500000 143.0469971  75.4100037
 109.4100037 144.9420013  76.4929962 109.3919983 141.5240021  78.5059967
 110.5520020 141.2539978  78.1949997 109.0680008 141.7259979  79.8010025
 108.1389999 141.9960022  80.0400009 109.9970016 141.5800018  80.9069977
 110.8330002 142.2409973  80.7350006 109.3050003 141.9570007  82.2450027
 108.4599991 141.2579956  82.4240036 108.8489990 142.9640045  82.1320038
 110.2570038 141.9869995  83.4660034 110.5630035 143.0429993  83.6269989
 111.1949997 141.4270020  83.2639999 109.6559982 141.4570007  84.7750015
 108.6689987 141.9259949  84.9710007 110.3580017 141.6690063  85.6100006
 109.4810028 139.9759979  84.6200027 109.5680008 139.5729980  83.7089996
 109.1689987 139.1459961  85.6080017 108.9329987 137.8800049  85.3300018
 108.9029999 137.5820007  84.3759995 108.6320038 137.2669983  86.0609970
 109.0699997 139.5399933  86.8570023 109.2350006 140.5039978  87.0670013
 108.8229980 138.8809967  87.5670013 110.5479965 140.1609955  81.0240021
 111.7480011 139.9380035  81.1969986 109.6679993 139.1510010  80.8939972
 108.6989975 139.3359985  80.7470016 110.0579987 137.7640076  80.8359985
 110.6070023 137.5220032  81.7340012 108.7959976 136.9069977  80.7539978
 108.1940002 137.1560059  79.8539963 108.1579971 137.0489960  81.6529999
 109.0899963 135.8370056  80.6869965 110.9599991 137.4290009  79.6510010
 112.0000000 136.7890015  79.8020020 110.6119995 137.9320068  78.4520035
 109.7379990 138.4029999  78.3529968 111.4059982 137.8339996  77.2470016
 111.5329971 136.7870026  77.0130005 110.6100006 138.5169983  76.1050034
 110.2600021 139.4949951  76.4970016 109.6969986 137.9149933  75.9079971
 111.3420029 138.8040009  74.7779999 111.4390030 137.8659973  74.1910019
 112.3700027 139.1820068  74.9660034 110.6500015 139.8939972  73.9430008
 111.2060013 140.0870056  73.0009995 110.6029968 140.8309937  74.5370026
 109.2770004 139.4010010  73.6019974 109.1650009 138.4400024  73.3499985
 108.2249985 140.1829987  73.3949966 107.1460037 139.6609955  72.8420029
 106.4049988 140.2700043  72.5609970 107.1770020 138.7189941  72.5070038
 108.1969986 141.4609985  73.6969986 108.9329987 141.8619995  74.2429962
 107.3580017 141.9839935  73.5449982 112.8109970 138.4299927  77.3830032
 113.8099976 137.8179932  76.9970016 112.9250031 139.6300049  77.9929962
 112.1029968 140.1369934  78.2409973 114.1859970 140.2510071  78.3359985
 114.7570038 140.3540039  77.4250031 113.9290009 141.6519928  78.9260025
 113.3489990 141.5850067  79.8710022 113.3470001 142.2649994  78.2040024
 114.8870010 142.1759949  79.1309967 115.0400009 139.4320068  79.3069992
 116.2460022 139.2689972  79.1090012 114.4329987 138.8580017  80.3710022
 113.4690018 139.0390015  80.5500031 115.1149979 137.9210052  81.2519989
 116.0029984 138.4170074  81.6139984 114.2720032 137.5149994  82.4850006
 113.3479996 137.0070038  82.1360016 113.9660034 138.4329987  83.0319977
 114.3960037 135.6950073  84.2740021 113.4120026 135.5690002  84.4010010
 115.0120010 136.6060028  83.4459991 115.3710022 135.0310059  84.9410019
 115.1510010 134.2500000  85.6689987 116.5780029 135.4510040  84.5999985
 116.3529968 136.4470062  83.6589966 117.1869965 136.9730072  83.2109985
 115.5869980 136.6560059  80.5370026 116.7200012 136.2169952  80.7210007
 114.7529984 136.0639954  79.6620026 113.8150024 136.3860016  79.5589981
 115.1190033 134.9239960  78.8399963 115.4380035 134.1360016  79.5049973
 113.9120026 134.4040070  78.0630035 113.3809967 135.2570038  77.5889969
 114.3280029 133.4080048  76.9660034 114.9489975 132.6020050  77.4130020
 114.9049988 133.9019928  76.1559982 113.4280014 132.9429932  76.5100021
 112.9580002 133.7089996  79.0520020 112.6200027 134.4010010  79.8529968
 113.4729996 132.8500061  79.5339966 112.0619965 133.3249969  78.5210037
 116.3160019 135.2039948  77.9229965 117.2649994 134.4160004  77.8600006
 116.3529968 136.3750000  77.2490005 115.5520020 136.9689941  77.2429962
 117.5120010 136.8470001  76.5120010 117.7679977 136.0919952  75.7829971
 117.1989975 138.1920013  75.7969971 118.1320038 138.6560059  75.4130020
 116.7330017 138.8919983  76.5230026 116.2630005 138.0359955  74.6039963
 115.7490005 139.0859985  74.1269989 116.1169968 136.9120026  74.0530014
 118.7679977 137.0279999  77.3779984 119.8659973 136.6069946  77.0039978
 118.6419983 137.6349945  78.5749969 117.7630005 138.0160065  78.8509979
 119.7229996 137.7550049  79.5329971 120.5429993 138.2559967  79.0410004
 119.2600021 138.6159973  80.7239990 118.4189987 138.1309967  81.2649994
 118.9100037 139.6060028  80.3610001 120.0920029 138.7830048  81.4410019
 120.2610016 136.4140015  80.0380020 121.4690018 136.1929932  80.1050034
 119.3720016 135.4669952  80.3740005 118.3990021 135.6829987  80.3759995
 119.7009964 134.1119995  80.7620010 120.3919983 134.1840057  81.5889969
 118.4199982 133.4029999  81.2519989 117.7089996 133.3200073  80.4020004
 117.9390030 134.0460052  82.0199966 118.6350021 132.0079956  81.8669968
 119.1279984 131.3609924  81.1110001 119.5309982 132.0390015  83.1169968
 119.0650024 132.6670074  83.9059982 120.5380020 132.4409943  82.8750000
 119.6529999 131.0110016  83.5220032 117.2850037 131.3730011  82.2089996
 116.6350021 131.3229980  81.3089981 116.7679977 131.9570007  83.0000000
 117.4459991 130.3399963  82.5859985 120.4049988 133.3020020  79.6640015
 121.3990021 132.6119995  79.9029999 119.9430008 133.4250031  78.4000015
 119.0889969 133.9100037  78.2310028 120.6269989 132.9069977  77.2269974
 120.7220001 131.8359985  77.3339996 119.7939987 133.2339935  75.9550018
 119.6240005 134.3320007  75.9270020 118.7939987 132.7619934  76.0680008
 120.4179993 132.8040009  74.6090012 120.3720016 131.6970062  74.5299988
 121.4919968 133.0870056  74.5790024 119.7310028 133.4340057  73.3880005
 119.6999969 134.5429993  73.4540024 118.6839981 133.0720062  73.3030014
 120.4929962 133.0050049  72.1679993 120.1549988 132.2350006  71.6269989
 121.6309967 133.5469971  71.7450027 122.2239990 133.0429993  70.6800003
 121.8140030 132.2660065  70.2009964 123.0830002 133.4389954  70.3570023
 122.2089996 134.5709991  72.3369980 121.7750015 134.9909973  73.1340027
 123.0609970 134.9400024  71.9649963 122.0350037 133.4819946  77.0579987
 123.0059967 132.7660065  76.8030014 122.1780014 134.8119965  77.2399979
 121.3619995 135.3619995  77.4039993 123.4599991 135.5149994  77.2460022
 123.9580002 135.2810059  76.3170013 123.3180008 137.0370026  77.3209991
 122.7590027 137.3300018  78.2350006 122.6200027 137.5279999  76.1770020
 121.7070007 137.2429962  76.2570038 124.6880035 137.7380066  77.3259964
 125.2949982 137.4120026  76.4550018 125.2539978 137.5200043  78.2570038
 124.5550003 138.8399963  77.2679977 124.3850021 135.0290070  78.3529968
 125.5759964 134.8110046  78.1370010 123.8389969 134.7940063  79.5640030
 122.8830032 135.0339966  79.7139969 124.5339966 134.2420044  80.7149963
 125.3519974 134.9129944  80.9329987 123.6129990 134.2180023  81.9680023
 122.6449966 133.7469940  81.6949997 123.3909988 135.2649994  82.2689972
 125.2649994 133.8280029  83.8710022 125.8949966 134.5709991  83.6470032
 124.1460037 133.4609985  83.1569977 125.4150009 132.9259949  84.8740005
 126.2360001 132.9739990  85.5889969 124.4629974 132.0090027  84.8590012
 123.6579971 132.3500061  83.7799988 122.7829971 131.7619934  83.5339966
 125.1679993 132.8670044  80.4820023 126.2949982 132.6089935  80.9130020
 124.4779968 131.9600067  79.7590027 123.5510025 132.1679993  79.4540024
 124.9860001 130.6419983  79.4160004 125.1930008 130.1369934  80.3479996
 123.9039993 129.8240051  78.6559982 123.6470032 130.3589935  77.7170029
 122.9869995 129.7929993  79.2829971 124.2919998 128.3670044  78.2969971
 125.2149963 128.3869934  77.6809998 124.5800018 127.5279999  79.5540009
 123.6930008 127.5130005  80.2220001 125.4469986 127.9420013  80.1129990
 124.8150024 126.4789963  79.2710037 123.2109985 127.6949997  77.4329987
 123.0380020 128.2779999  76.5029984 122.2519989 127.6220016  77.9909973
 123.5289993 126.6689987  77.1510010 126.3010025 130.6349945  78.6149979
 127.1999969 129.8379974  78.8820038 126.4639969 131.5319977  77.6159973
 125.7549973 132.2109985  77.4420013 127.6100006 131.5420074  76.7170029
 127.6409988 130.5549927  76.2799988 127.3590012 132.5059967  75.5370026
 127.1910019 133.5480042  75.8840027 126.4509964 132.1860046  74.9840012
 128.2140045 132.4960022  74.8280029 129.0130005 131.7230072  77.3509979
 129.9320068 131.0090027  76.9359970 129.2850037 132.5800018  78.3460007
 128.6049957 133.8650055  78.5070038 127.7750015 133.7359924  79.2340012
 128.2059937 134.2619934  77.5490036 130.5610046 132.5639954  79.0630035
 131.3600006 132.5480042  78.3369980 130.5529938 133.8659973  79.8840027
 131.5780029 134.2669983  80.0370026 130.0740051 133.7129974  80.8740005
 129.6739960 134.8070068  79.0599976 129.2429962 135.6340027  79.6620026
 130.2630005 135.2330017  78.2200012 130.7259979 131.3450012  79.9639969
 131.8589935 130.9290009  80.2170029 129.6199951 130.7779999  80.4899979
 128.7239990 131.1349945  80.2369995 129.6080017 129.6080017  81.3580017
 130.3139954 129.7890015  82.1539993 128.1809998 129.4279938  81.9660034
 127.4639969 129.0839996  81.1910019 127.8249969 130.4140015  82.3330002
 128.1190033 128.4579926  83.1230011 127.7139969 127.1220016  82.9410019
 127.4980011 126.7610016  81.9459991 127.5820007 126.2590027  84.0410004
 127.2730026 125.2360001  83.8870010 127.8369980 126.7269974  85.3369980
 127.7289963 125.8690033  86.4609985 127.5110016 124.9860001  86.1510010
 128.3470001 128.9179993  84.4319992 128.6219940 129.9499969  84.5960007
 128.2059937 128.0599976  85.5299988 128.3930054 128.4239960  86.5289993
 130.0789948 128.3470001  80.6070023 130.6900024 127.4420013  81.1809998
 129.8300018 128.2879944  79.2789993 129.2830048 129.0099945  78.8629990
 130.1340027 127.1750031  78.3880005 129.5229950 126.3359985  78.6869965
 129.8549957 127.5619965  76.8949966 129.9779968 126.6740036  76.2379990
 130.5679932 128.3419952  76.5520020 128.5549927 128.1040039  76.6969986
 127.9319992 127.3820038  76.8010025 131.5829926 126.7050018  78.3069992
 131.8659973 125.5070038  78.2710037 132.5249939 127.6600037  78.1709976
 132.2779999 128.6150055  78.3140030 133.8170013 127.4290009  77.5510025
 133.6199951 127.0250015  76.5690002 134.4909973 128.8240051  77.3909988
 134.7389984 129.2400055  78.3909988 133.7669983 129.5130005  76.9049988
 135.7469940 128.8150024  76.5270004 135.8430023 127.9990005  75.5739975
 136.6020050 129.7220001  76.7220001 134.7530060 126.4260025  78.2450027
 135.3020020 125.5159988  77.6179962 134.9479980 126.5739975  79.5739975
 134.4389954 127.2699966  80.0749969 135.9850006 125.8560028  80.2969971
 136.9170074 126.0350037  79.7819977 136.1150055 126.4469986  81.7269974
 135.1660004 126.2480011  82.2699966 136.2089996 127.5510025  81.6470032
 137.2839966 125.8929977  82.5830002 137.3179932 124.7839966  82.5179977
 137.1060028 126.1669998  83.6439972 138.6519928 126.4609985  82.2060013
 139.6080017 125.6679993  81.9919968 138.8029938 127.7129974  82.1800003
 135.8090057 124.3369980  80.3470001 136.7209930 123.5759964  80.0149994
 134.6000061 123.8509979  80.7210007 133.8540039 124.4789963  80.9319992
 134.3300018 122.4280014  80.8799973 135.0800018 122.0459976  81.5579987
 132.9329987 122.1809998  81.5070038 132.1499939 122.5609970  80.8170013
 132.8589935 122.7679977  82.4469986 132.6239929 120.7009964  81.8430023
 132.7350006 120.0869980  80.9240036 133.5829926 120.1429977  82.9059982
 133.5269928 120.7519989  83.8339996 134.6309967 120.1490021  82.5370026
 133.3049927 119.0979996  83.1589966 131.1699982 120.5329971  82.3020020
 130.4759979 120.8369980  81.4889984 130.9669952 121.1569977  83.1979980
 130.9629974 119.4710007  82.5550003 134.4629974 121.6220016  79.5950012
 135.0619965 120.5449982  79.5680008 133.9239960 122.1549988  78.4800034
 133.4570007 123.0350037  78.5309982 133.9830017 121.5319977  77.1719971
 133.5339966 120.5520020  77.2529984 133.1699982 122.3649979  76.1490021
 133.3509979 121.9629974  75.1289978 133.5319977 123.4150009  76.1660004
 131.6470032 122.3539963  76.4199982 131.4640045 122.6380005  77.4779968
 131.2550049 121.3219986  76.2900009 130.8329926 123.3229980  75.5490036
 131.1820068 124.3639984  75.7190018 129.7519989 123.2389984  75.7890015
 131.0590057 122.9369965  74.1200027 131.5610046 122.0960007  73.9179993
 130.6020050 123.6050034  73.0709991 130.8999939 123.1910019  71.8570023
 131.4880066 122.3919983  71.7330017 130.4089966 123.6090012  71.0930023
 129.8410034 124.6729965  73.1729965 129.5039978 125.1050034  72.3359985
 129.5559998 124.9810028  74.0800018 135.3999939 121.3199997  76.6510010
 135.7590027 120.2409973  76.1729965 136.2599945 122.3529968  76.7770004
 135.9400024 123.2220001  77.1449966 137.6730042 122.2699966  76.4589996
 137.7579956 121.9110031  75.4440002 138.3049927 123.6849976  76.5250015
 138.1349945 124.1309967  77.5279999 137.7350006 124.3089981  75.8040009
 139.8040009 123.7770004  76.1360016 139.9900055 124.7929993  75.7249985
 140.0429993 123.0490036  75.3320007 140.7660065 123.6220016  77.3209991
 140.9190063 124.5270004  78.1470032 141.4640045 122.4660034  77.4029999
 142.1239929 122.3610001  78.1470032 141.2689972 121.7220001  76.7639999
 138.4290009 121.2730026  77.3320007 139.2039948 120.4499969  76.8379974
 138.1840057 121.2919998  78.6589966 137.5809937 121.9820023  79.0500031
 138.7559967 120.3450012  79.5979996 139.8300018 120.3980026  79.5029984
 138.3820038 120.7139969  81.0550003 138.6959991 119.9039993  81.7480011
 137.2769928 120.8020020  81.1220016 139.0240021 122.0339966  81.5329971
 138.2120056 122.6780014  81.9319992 139.4620056 122.5729980  80.6660004
 140.0959930 121.8619995  82.6179962 140.9830017 121.3190002  82.2259979
 139.6719971 121.3150024  83.4869995 140.4920044 123.2419968  83.0270004
 140.1470032 124.0250015  82.5100021 141.0760040 123.5709991  84.1689987
 141.2149963 124.8619995  84.4049988 140.8739929 125.4889984  83.7040024
 141.6880035 125.1750031  85.2279968 141.5030060 122.7040024  85.0540009
 141.4140015 121.7269974  84.8619995 141.9349976 123.0110016  85.9020004
 138.3860016 118.8939972  79.3280029 139.2469940 118.0169983  79.3229980
 137.1009979 118.6060028  79.0439987 136.4019928 119.3150024  79.0869980
 136.6499939 117.2789993  78.6729965 136.9450073 116.6149979  79.4720001
 135.1119995 117.2379990  78.5410004 134.8029938 117.9280014  77.7279968
 134.6649933 117.6240005  79.4820023 134.5160065 115.8399963  78.2529984
 134.9490051 115.4509964  77.3059998 134.8170013 114.8199997  79.3639984
 134.3890076 115.1679993  80.3280029 135.9109955 114.6679993  79.4820023
 134.3569946 113.8399963  79.1129990 133.0059967 115.9589996  78.0419998
 132.8000031 116.6829987  77.2249985 132.5119934 116.3229980  78.9690018
 132.5670013 114.9759979  77.7679977 137.2940063 116.7440033  77.3949966
 137.7189941 115.5899963  77.3270035 137.4270020 117.5889969  76.3489990
 137.0399933 118.5070038  76.3919983 138.1309967 117.2429962  75.1320038
 137.6540070 116.3690033  74.7149963 138.0160065 118.4059982  74.1279984
 138.5059967 119.3219986  74.5220032 136.9459991 118.6399994  73.9420013
 138.4859924 118.1389999  73.1579971 139.6080017 116.8889999  75.3470001
 140.1130066 115.9010010  74.8130035 140.3350067 117.6709976  76.1750031
 139.9299927 118.4980011  76.5569992 141.6799927 117.3410034  76.6119995
 142.2870026 117.1989975  75.7300034 142.2530060 118.5149994  77.4300003
 141.6470032 118.6989975  78.3430023 142.2480011 119.4420013  76.8180008
 143.3009949 118.3099976  77.7350006 141.7680054 116.0479965  77.4319992
 142.6410065 115.2040024  77.2210007 140.8280029 115.8590012  78.3779984
 140.1660004 116.5849991  78.5490036 140.6979980 114.6969986  79.2369995
 141.6260071 114.5839996  79.7779999 139.5480042 114.9520035  80.2379990
 138.5829926 114.9990005  79.6880035 139.7209930 115.9560013  80.6809998
 139.4270020 113.9319992  81.3880005 140.3580017 113.9570007  81.9940033
 139.3320007 112.9069977  80.9710007 138.2160034 114.1829987  82.3010025
 138.1770020 113.4400024  83.1269989 137.2879944 114.0999985  81.6949997
 138.3690033 115.5579987  82.8830032 139.2839966 115.8799973  83.1279984
 137.4160004 116.4759979  82.9860001 137.7530060 117.6869965  83.3799973
 138.7200012 117.8740005  83.5559998 137.0549927 118.3970032  83.4759979
 136.1560059 116.2320023  82.6989975 135.8869934 115.3050003  82.4380035
 135.4770050 116.9580002  82.8089981 140.4570007 113.3990021  78.4680023
 141.0420074 112.3590012  78.7649994 139.6130066 113.4479980  77.4199982
 139.1080017 114.2890015  77.2440033 139.3150024 112.3529968  76.5159988
 138.8760071 111.5530014  77.0920029 138.2799988 112.8629990  75.4769974
 138.6309967 113.8489990  75.1029968 137.3220062 113.0400009  76.0100021
 138.0070038 111.9789963  74.2389984 138.9550018 111.8410034  73.6770020
 137.4709930 110.5970001  74.6279984 136.5079956 110.7009964  75.1709976
 138.1880035 110.0579987  75.2839966 137.2949982 109.9800034  73.7210007
 137.0200043 112.6849976  73.2939987 137.4199982 113.6740036  72.9830017
 136.0440063 112.8420029  73.8020020 136.8489990 112.0719986  72.3840027
 140.5449982 111.7659988  75.8209991 140.7259979 110.5459976  75.7639999
 141.4620056 112.6220016  75.3239975 141.2949982 113.6050034  75.3460007
 142.7369995 112.1940002  74.7740021 142.5319977 111.4970016  73.9749985
 143.5200043 113.4010010  74.1930008 144.5489960 113.0830002  73.9189987
 143.6139984 114.1800003  74.9800034 142.8650055 114.0339966  72.9390030
 143.4459991 114.9300003  72.6320038 141.8329926 114.3659973  73.1819992
 142.8179932 113.0759964  71.7509995 141.6999969 112.7630005  71.2580032
 143.9029999 112.6449966  71.2730026 143.6179962 111.4479980  75.7779999
 144.1829987 110.3939972  75.4759979 143.7180023 111.9599991  77.0260010
 143.2640076 112.8199997  77.2440033 144.3990021 111.2939987  78.1200027
 145.4120026 111.0950012  77.8010025 144.4429932 112.2210007  79.3529968
 143.4199982 112.4449997  79.7239990 144.9320068 113.1819992  79.0859985
 145.0240021 111.7549973  80.1770020 143.7870026 109.9449997  78.5039978
 144.4900055 108.9499969  78.6849976 142.4459991 109.8600006  78.5970001
 141.8910065 110.6839981  78.5059967 141.7209930 108.6230011  78.8320007
 142.0800018 108.1959991  79.7559967 140.2019958 108.9059982  78.9509964
 139.6139984 107.9670029  78.8720016 139.9029999 109.5619965  78.1050034
 139.7899933 109.5859985  80.2720032 140.4900055 110.4240036  80.4800034
 138.3840027 110.1890030  80.1520004 137.6490021 109.3939972  79.9039993
 138.3580017 110.9580002  79.3499985 138.0809937 110.6640015  81.1090012
 139.8540039 108.5970001  81.4459991 140.8970032 108.2620010  81.6289978
 139.2250061 107.7060013  81.2320023 139.4709930 109.0739975  82.3740005
 141.9479980 107.5640030  77.7580032 142.2189941 106.3990021  78.0589981
 141.8999939 107.9599991  76.4700012 141.6329956 108.8949966  76.2500000
 142.2209930 107.1029968  75.3450012 141.5789948 106.2369995  75.4029999
 141.9120026 107.8420029  74.0199966 142.4830017 108.7939987  73.9869995
 140.8339996 108.1110001  74.0299988 142.2089996 107.0350037  72.7450027
 141.7220001 106.0400009  72.8310013 143.3029938 106.8700027  72.6449966
 141.6860046 107.7389984  71.4779968 142.1809998 108.7300034  71.3980026
 140.5959930 107.9140015  71.6029968 141.9290009 106.9309998  70.1920013
 141.4239960 105.9440002  70.2590027 143.0180054 106.7669983  70.0429993
 141.3970032 107.6470032  69.0039978 141.8619995 108.5709991  68.8929977
 140.3730011 107.8020020  69.0950012 141.5659943 107.0920029  68.1399994
 143.6589966 106.5810013  75.3619995 143.9129944 105.3929977  75.1490021
 144.6349945 107.4599991  75.6729965 144.4109955 108.4240036  75.7900009
 146.0330048 107.1070023  75.8519974 146.3679962 106.6350021  74.9400024
 146.8670044 108.4010010  76.0530014 146.3880005 109.0059967  76.8519974
 146.7969971 108.9899979  75.1139984 148.3549957 108.1900024  76.4250031
 148.8249969 107.5120010  75.6809998 148.4510040 107.7239990  77.4290009
 149.1269989 109.5080032  76.4449997 150.0410004 109.6910019  75.5960007
 148.8439941 110.3710022  77.3190002 146.3059998 106.1009979  76.9739990
 147.0209961 105.1129990  76.7929993 145.6889954 106.3010025  78.1610031
 145.1479950 107.1299973  78.2829971 145.7380066 105.3679962  79.2789993
 146.7779999 105.1340027  79.4530029 145.1439972 105.9840012  80.5749969
 144.9459991 105.1989975  81.3349991 144.1909943 106.5159988  80.3659973
 146.1679993 106.9290009  81.2020035 146.9900055 106.5110016  82.0250015
 146.1170044 108.2330017  80.8570023 146.7660065 108.8639984  81.2829971
 145.4810028 108.5370026  80.1470032 145.0919952 104.0120010  78.9990005
 145.5760040 102.9759979  79.4540024 143.9730072 103.9789963  78.2419968
 143.5800018 104.8369980  77.9219971 143.2680054 102.7539978  77.8560028
 142.4940033 103.0390015  77.1589966 142.8690033 102.2979965  78.7509995
 144.1080017 101.7050018  77.1630020 144.0469971 100.5250015  77.4990005
 144.9440002 102.1190033  76.1859970 144.9510040 103.0839996  75.9359970
 145.8430023 101.2229996  75.4550018 146.3489990 101.8130035  74.7060013
 145.2539978 100.4270020  75.0250015 146.9129944 100.5830002  76.3069992
 147.2160034  99.3970032  76.1750031 147.5140076 101.3590012  77.2300034
 147.2749939 102.3239975  77.2969971 148.4459991 100.8489990  78.2170029
 149.2449951 100.3430023  77.6949997 149.0299988 102.0279999  79.0189972
 148.2319946 102.5670013  79.5729980 149.5189972 102.7480011  78.3290024
 149.7899933 101.6729965  79.7470016 147.8190002  99.8349991  79.1750031
 148.3679962  98.7649994  79.4359970 146.6139984 100.1389999  79.6930008
 146.1979980 101.0230026  79.4919968 145.8529968  99.2419968  80.5410004
 146.5299988  98.9130020  81.3150024 144.7230072  99.9940033  81.2819977
 144.1150055  99.2580032  81.8499985 144.0630035 100.4919968  80.5400009
 145.2949982 101.0080032  82.3030014 145.9389954 101.7509995  81.7850037
 145.9519958 100.4489975  83.0029984 144.2649994 101.7580032  83.1579971
 144.7859955 102.3860016  83.9120026 143.5839996 101.0439987  83.6689987
 143.4790039 102.6389999  82.2399979 143.6670074 102.6050034  81.2590027
 142.5670013 103.5070038  82.6569977 141.9120026 104.2289963  81.7659988
 142.0290070 104.0380020  80.7919998 141.1770020 104.8389969  82.0619965
 142.2980042 103.6849976  83.9319992 142.7859955 103.1490021  84.6200027
 141.6210022 104.3700027  84.1999969 145.4010010  97.9420013  79.8639984
 145.4620056  96.8639984  80.4589996 145.0070038  98.0009995  78.5709991
 144.8630066  98.8850021  78.1340027 144.7969971  96.8349991  77.7249985
 144.0180054  96.2310028  78.1669998 144.3760071  97.2699966  76.2929993
 144.6239929  96.4940033  75.5370026 144.9519958  98.1829987  76.0279999
 142.8730011  97.5690002  76.1370010 142.5319977  98.1429977  77.0250015
 142.6040039  98.4319992  74.8939972 142.9620056  97.9179993  73.9769974
 143.1250000  99.4089966  74.9830017 141.5149994  98.6250000  74.7900009
 142.0709991  96.2649994  76.0540009 142.1759949  95.6760025  76.9889984
 142.4199982  95.6449966  75.2009964 140.9929962  96.4889984  75.8990021
 146.0260010  95.9359970  77.5979996 145.9329987  94.7119980  77.7160034
 147.2230072  96.5220032  77.3850021 147.2810059  97.5080032  77.2490005
 148.4759979  95.7939987  77.3659973 148.3890076  95.0220032  76.6149979
 149.6289978  96.7330017  76.9629974 149.7819977  97.5299988  77.7210007
 149.3990021  97.2180023  75.9909973 150.5780029  96.1650009  76.8509979
 148.7989960  95.0889969  78.6869965 149.1889954  93.9199982  78.6999969
 148.5919952  95.7639999  79.8379974 148.3370056  96.7269974  79.8089981
 148.7129974  95.1610031  81.1559982 149.7079926  94.7460022  81.2310028
 148.5350037  96.2080002  82.2880020 148.4989929  95.6859970  83.2679977
 147.5630035  96.7289963  82.1529999 149.6690063  97.2610016  82.3649979
 149.4750061  97.9580002  83.2080002 149.6840057  97.8560028  81.4270020
 151.0489960  96.6370010  82.5690002 151.2899933  96.0149994  83.6389999
 151.9250031  96.7829971  81.6709976 147.7570038  93.9919968  81.3970032
 148.1510010  92.9390030  81.9020004 146.4730072  94.1250000  81.0019989
 146.1439972  94.9990005  80.6539993 145.5140076  93.0339966  81.0360031
 145.5760040  92.6299973  82.0360031 144.0709991  93.5390015  80.7429962
 143.5130005  92.9059982  80.0199966 144.0839996  94.5810013  80.3590012
 143.3459930  93.5090027  82.0530014 142.7460022  92.3079987  82.4649963
 142.7129974  91.4660034  81.7900009 142.2720032  92.1699982  83.7730026
 141.8269958  91.2360001  84.0839996 142.3939972  93.2320023  84.6760025
 142.0350037  93.0329971  86.0299988 141.9270020  93.8929977  86.4420013
 143.3899994  94.5979996  82.9380035 143.8580017  95.5210037  82.6289978
 142.9109955  94.4599991  84.2480011 142.9810028  95.2910004  84.9349976
 145.8630066  91.8399963  80.1569977 145.7689972  90.6859970  80.5830002
 146.3280029  92.0879974  78.9179993 146.3329926  93.0240021  78.5739975
 146.8470001  91.0599976  78.0319977 146.0700073  90.3229980  77.8929977
 147.1970062  91.6760025  76.6529999 147.9279938  92.5000000  76.8000031
 146.2779999  92.1279984  76.2220001 147.0630035  89.6729965  75.0869980
 146.1170044  89.4169998  75.2850037 147.7740021  90.7089996  75.6549988
 147.8780060  89.0800018  74.1790009 147.5650024  88.2249985  73.5790024
 149.0610046  89.6729965  74.1159973 148.9929962  90.7009964  75.0469971
 149.8309937  91.3710022  75.1979980 148.0529938  90.3180008  78.6090012
 148.1349945  89.0889969  78.5650024 149.0010071  91.0559998  79.2229996
 148.9479980  92.0510025  79.2089996 150.1159973  90.4980011  79.9580002
 150.6629944  89.8570023  79.2819977 151.0489960  91.6350021  80.4179993
 150.5279999  92.3219986  81.1179962 151.3829956  92.2279968  79.5400009
 151.9510040  91.2289963  80.9250031 149.7149963  89.6350021  81.1579971
 150.2480011  88.5400009  81.3440018 148.7359924  90.0790024  81.9820023
 148.3549957  90.9909973  81.8489990 148.2279968  89.3160019  83.1159973
 149.0610046  89.1039963  83.7699966 147.1549988  90.1250000  83.8990021
 146.2169952  90.1969986  83.3079987 147.5350037  91.1610031  84.0270004
 146.8710022  89.5490036  85.3010025 147.8020020  89.6650009  85.8960037
 146.6589966  88.4599991  85.2429962 145.7180023  90.2429962  86.0609970
 145.7989960  91.3410034  85.9110031 145.8730011  90.0370026  87.1419983
 144.3139954  89.7590027  85.6579971 144.2519989  88.6549988  85.7750015
 144.0980072  90.0159988  84.5989990 143.2619934  90.3720016  86.5230026
 143.1479950  91.3860016  86.3209991 143.4940033  90.2659988  87.5309982
 142.3419952  89.9140015  86.3600006 147.6130066  87.9820023  82.6949997
 147.9100037  86.9250031  83.2570038 146.7720032  87.9980011  81.6370010
 146.5209961  88.8669968  81.2170029 146.2070007  86.8099976  81.0339966
 145.6759949  86.2669983  81.8030014 145.2120056  87.2259979  79.9339981
 145.7239990  87.7959976  79.1289978 144.4219971  87.8750000  80.3669968
 144.7209930  86.3359985  79.4860001 147.2570038  85.8619995  80.4589996
 147.2140045  84.6520004  80.6770020 148.2649994  86.4029999  79.7419968
 148.2469940  87.3820038  79.5520020 149.3930054  85.6399994  79.2050018
 148.9839935  84.8470001  78.5950012 150.3130035  86.4820023  78.3180008
 150.7019958  87.3529968  78.8870010 149.6029968  86.9570007  77.1770020
 148.9909973  87.6269989  77.4909973 151.4989929  85.6600037  77.7789993
 151.1349945  84.7429962  77.2689972 152.1970062  85.3649979  78.5910034
 152.0789948  86.2590027  77.0449982 150.2270050  84.9619980  80.2809982
 150.5639954  83.7799988  80.1869965 150.5520020  85.6839981  81.3740005
 150.3119965  86.6500015  81.4290009 151.2489929  85.1330032  82.5230026
 152.1699982  84.6989975  82.1650009 151.6159973  86.2600021  83.5210037
 150.6959991  86.8219986  83.7919998 152.2839966  86.9660034  82.9830017
 152.3079987  85.7720032  84.8170013 153.1399994  85.0820007  84.5579987
 151.5839996  85.2149963  85.4499969 152.8959961  86.9219971  85.6330032
 152.4290009  87.1589966  86.7789993 153.8509979  87.5889969  85.1480026
 150.4920044  84.0019989  83.2180023 151.0440063  82.9390030  83.5080032
 149.1699982  84.1809998  83.4260025 148.7570038  85.0660019  83.2279968
 148.2740021  83.1399994  83.9049988 148.6410065  82.7939987  84.8600006
 146.8529968  83.7300034  84.0999985 146.5709991  84.2829971  83.1790009
 146.8690033  84.4690018  84.9300003 145.2350006  82.3809967  85.5530014
 145.5019989  82.7519989  86.4430008 145.7779999  82.7040024  84.3280029
 144.2400055  81.4889984  85.3170013 143.6260071  81.0680008  86.1129990
 144.1069946  81.2229996  84.0289993 145.0639954  82.0009995  83.4049988
 145.1620026  82.0009995  82.3270035 148.2030029  81.9069977  82.9950027
 148.2799988  80.7610016  83.4449997 148.0989990  82.1250000  81.6669998
 147.9909973  83.0569992  81.3300018 148.0850067  81.0950012  80.6449966
 147.2610016  80.4349976  80.8710022 147.8379974  81.7330017  79.2539978
 148.6159973  82.5049973  79.0690002 146.8600006  82.2580032  79.2900009
 147.8240051  80.7689972  78.0479965 148.8190002  80.2819977  77.9629974
 146.7630005  79.6679993  78.2030029 145.7530060  80.1169968  78.3160019
 146.9730072  79.0370026  79.0930023 146.7570038  79.0090027  77.3079987
 147.5870056  81.5550003  76.7490005 148.3710022  82.3300018  76.6129990
 146.5959930  82.0569992  76.7760010 147.6109924  80.8730011  75.8720016
 149.3410034  80.2289963  80.6350021 149.2769928  79.0090027  80.4840012
 150.5310059  80.8330002  80.8389969 150.5659943  81.8270035  80.8990021
 151.7879944  80.0999985  80.9700012 151.9259949  79.5309982  80.0630035
 152.9920044  81.0780029  81.1210022 152.8990021  81.6630020  82.0609970
 152.9450073  81.8010025  80.2789993 154.2660065  80.4160004  81.0759964
 154.4040070  79.9639969  81.9110031 151.7859955  79.1019974  82.1320038
 152.1710052  77.9420013  81.9749985 151.2879944  79.5059967  83.3229980
 151.0140076  80.4540024  83.4619980 151.0859985  78.6070023  84.4639969
 152.0319977  78.1259995  84.6620026 150.6450043  79.3219986  85.7409973
 149.6349945  79.7630005  85.6050034 151.5370026  80.3870010  86.0630035
 152.4179993  80.0139999  86.1350021 150.6219940  78.3619995  86.9459991
 151.6020050  77.8499985  87.0599976 149.8329926  77.5879974  86.8300018
 150.4089966  78.9179993  87.8830032 150.0910034  77.4919968  84.1800003
 150.3410034  76.3249969  84.4830017 148.9459991  77.8089981  83.5350037
 148.7389984  78.7610016  83.3259964 147.9700012  76.8229980  83.0920029
 147.6369934  76.2689972  83.9570007 146.7460022  77.5439987  82.4609985
 147.1289978  78.3389969  81.7860031 146.1840057  78.0520020  83.2740021
 145.7590027  76.6859970  81.6299973 146.3059998  76.2460022  80.7689972
 145.1390076  75.5309982  82.4329987 144.5760040  75.9250031  83.3059998
 145.9170074  74.8330002  82.8079987 144.4340057  74.9540024  81.7969971
 144.6540070  77.5770035  81.0390015 145.0939941  78.3740005  80.4020004
 144.0700073  78.0609970  81.8509979 143.9579926  76.9729996  80.4179993
 148.5460052  75.7949982  82.1190033 148.3730011  74.5879974  82.2870026
 149.3119965  76.2509995  81.1060028 149.4049988  77.2360001  80.9789963
 149.9819946  75.3929977  80.1370010 149.2230072  74.7949982  79.6539993
 150.7109985  76.2419968  79.0510025 151.5019989  76.8649979  79.5199966
 149.9640045  76.9380035  78.6129990 151.2660065  75.4489975  77.9899979
 152.0500031  75.0039978  78.3209991 150.9700012  74.4280014  80.7860031
 150.9960022  73.2340012  80.4800034 151.7850037  74.9209976  81.7429962
 151.7819977  75.8960037  81.9520035 152.6470032  74.0920029  82.5650024
 153.2729950  73.5159988  81.9010010 153.5800018  74.9889984  83.4229965
 152.9609985  75.7559967  83.9369965 154.2550049  75.5270004  82.7239990
 154.4149933  74.2399979  84.4909973 154.8930054  73.3529968  84.0220032
 153.7649994  73.8870010  85.3199997 155.5090027  75.1210022  85.0899963
 155.1840057  76.1449966  85.7500000 156.7149963  74.7919998  84.9189987
 151.9219971  73.0699997  83.4459991 152.2850037  71.8929977  83.4860001
 150.8529968  73.4940033  84.1539993 150.5989990  74.4570007  84.1330032
 150.0370026  72.6399994  85.0000000 150.7050018  72.1460037  85.6900024
 149.0480042  73.4990005  85.8339996 148.3719940  74.0540009  85.1480026
 149.6430054  74.2549973  86.3899994 148.2039948  72.6949997  86.8450012
 148.9109955  72.1220016  87.4820023 147.5599976  71.9720001  86.3000031
 147.3309937  73.5989990  87.7399979 146.5670013  74.1090012  87.1159973
 147.9850006  74.3960037  88.1549988 146.6600037  72.8960037  88.9400024
 146.1089935  73.6439972  89.5490036 147.4360046  72.4229965  89.5790024
 145.6920013  71.8399963  88.5139999 146.1609955  71.0899963  87.9660034
 144.9369965  72.2490005  87.9280014 145.2429962  71.3960037  89.3399963
 149.2749939  71.5270004  84.2740021 149.2120056  70.3870010  84.7389984
 148.6580048  71.8440018  83.1169968 148.7039948  72.7779999  82.7720032
 147.7760010  70.9520035  82.3889999 146.9730072  70.6809998  83.0579987
 147.1690063  71.7089996  81.1900024 147.9609985  72.0309982  80.4800034
 146.6380005  72.6179962  81.5479965 146.4360046  71.0739975  80.6480026
 148.3829956  69.6380005  81.8939972 147.7850037  68.5749969  82.0530014
 149.5919952  69.6589966  81.2949982 150.0859985  70.5199966  81.1979980
 150.2030029  68.4700012  80.7129974 149.4669952  68.0759964  80.0289993
 151.4100037  68.8359985  79.8050003 152.0449982  69.5830002  80.3280029
 151.0039978  69.3399963  78.9020004 152.3000031  67.6589966  79.3690033
 151.6589966  66.8690033  78.9209976 152.8170013  67.2220001  80.2500000
 153.3569946  68.0889969  78.3320007 153.9859924  68.8870010  78.7829971
 152.8260040  68.5270004  77.4599991 154.2500000  66.9300003  77.8610001
 153.6300049  66.1279984  77.4079971 154.8130035  66.5059967  78.7190018
 155.2290039  67.3909988  76.8430023 155.8439941  68.1330032  77.2330017
 154.7400055  67.7750015  76.0090027 155.8300018  66.6019974  76.5319977
 150.4660034  67.2819977  81.6539993 150.1190033  66.1510010  81.2910004
 150.9810028  67.4459991  82.8769989 151.8950043  68.5380020  83.2350006
 151.3049927  69.3509979  83.7099991 152.4530029  68.9420013  82.3629990
 151.0989990  66.3290024  83.8109970 151.5679932  65.5000000  83.3010025
 151.9810028  66.8799973  84.9420013 152.5720062  66.0800018  85.4349976
 151.3719940  67.4120026  85.7050018 152.8630066  67.9079971  84.2350006
 153.3059998  68.6510010  84.9309998 153.6730042  67.3880005  83.6809998
 149.7489929  65.8600006  84.3290024 149.5729980  64.6620026  84.5459976
 148.7810059  66.7760010  84.5500031 148.9629974  67.7419968  84.3870010
 147.4230042  66.4319992  84.9319992 147.4759979  65.8430023  85.8359985
 146.6260071  67.7180023  85.2249985 146.5379944  68.3519974  84.3170013
 147.1430054  68.3089981  86.0110016 145.6040039  67.4749985  85.5879974
 146.6940002  65.5780029  83.8899994 146.0420074  64.5839996  84.2149963
 146.8300018  65.9189987  82.5920029 147.2890015  66.7710037  82.3519974
 146.3540039  65.1090012  81.4850006 145.2980042  64.9410019  81.6370010
 146.5549927  65.8450012  80.1360016 146.3520050  65.1589966  79.2860031
 147.6159973  66.1650009  80.0670013 145.6519928  67.0869980  79.9520035
 145.7209930  67.7160034  80.8649979 146.1399994  67.9390030  78.7720032
 146.0980072  67.3539963  77.8280029 147.1880035  68.2689972  78.9390030
 145.5019989  68.8420029  78.6579971 144.1759949  66.7060013  79.7600021
 143.7850037  66.1610031  80.6449966 144.0559998  66.0599976  78.8629990
 143.5599976  67.6200027  79.6169968 146.9929962  63.7220001  81.4209976
 146.3079987  62.7169991  81.2249985 148.3240051  63.6180000  81.6299973
 148.8780060  64.4400024  81.7369995 149.0140076  62.3440018  81.7559967
 148.7960052  61.7739983  80.8639984 150.5509949  62.5499992  81.8020020
 150.7859955  63.3209991  82.5680008 150.8580017  62.9630013  80.8180008
 151.3690033  61.2739983  82.1269989 151.0119934  60.4280014  81.5019989
 151.2270050  60.9970016  83.1930008 152.8630066  61.4529991  81.8619995
 153.6640015  61.4300003  82.8359985 153.2610016  61.5919991  80.6729965
 148.5339966  61.4739990  82.9199982 148.2870026  60.2760010  82.7669983
 148.3249969  62.0789986  84.1080017 148.5859985  63.0340004  84.2289963
 147.7380066  61.4350014  85.2669983 148.3500061  60.5800018  85.5139999
 147.7709961  62.4529991  86.4430008 147.2089996  63.3699989  86.1640015
 148.8269958  62.7449989  86.6259995 147.2070007  61.8989983  87.7460022
 146.4940033  62.6529999  88.4619980 147.5449982  60.7410011  88.1110001
 146.3139954  60.9059982  85.0029984 145.9839935  59.7560005  85.3050003
 145.4530029  61.7239990  84.3590012 145.7180023  62.6660004  84.1689987
 144.1269989  61.3269997  83.9189987 143.5829926  60.9900017  84.7890015
 143.3979950  62.5550003  83.3099976 144.0240021  62.9700012  82.4909973
 143.3280029  63.3370018  84.0950012 141.9810028  62.3009987  82.7470016
 142.0480042  61.5550003  81.9270020 141.0249939  61.7519989  83.8160019
 140.9409943  62.4659996  84.6630020 141.3869934  60.7770004  84.2089996
 140.0130005  61.5979996  83.3850021 141.4089966  63.5919991  82.1399994
 142.0729980  63.9739990  81.3349991 141.3119965  64.3769989  82.9199982
 140.4029999  63.4029999  81.7060013 144.1289978  60.1650009  82.9219971
 143.3890076  59.1889992  83.0690002 145.0149994  60.2159996  81.9049988
 145.5720062  61.0330009  81.7789993 145.2250061  59.1450005  80.9499969
 144.2720032  58.9350014  80.4860001 146.2010040  59.6160011  79.8399963
 147.0989990  60.0569992  80.3239975 145.7010040  60.4300003  79.2740021
 146.6670074  58.5169983  78.8590012 145.7729950  57.9589996  78.5080032
 147.3229980  57.7949982  79.3909988 147.3970032  59.0449982  77.6119995
 146.7319946  59.7410011  77.0569992 147.6799927  58.2239990  76.9189987
 148.6130066  59.8059998  78.0500031 148.5839996  60.8050003  78.0350037
 149.7879944  59.2659988  78.3570023 150.8020020  60.0610008  78.6380005
 150.6950073  61.0530014  78.5770035 151.6970062  59.6699982  78.8550034
 149.9989929  57.9679985  78.3820038 149.2500000  57.3479996  78.1460037
 150.9109955  57.6170006  78.5940018 145.6869965  57.8279991  81.5699997
 145.1690063  56.7529984  81.2610016 146.6540070  57.8899994  82.5080032
 147.0989990  58.7610016  82.6989975 147.0950012  56.7610016  83.3059998
 147.4040070  55.9840012  82.6220016 148.3329926  57.1679993  84.1490021
 148.0919952  58.1040001  84.6969986 149.1519928  57.4070015  83.4380035
 148.8139954  56.1059990  85.1679993 148.9340057  55.1250000  84.6600037
 148.0670013  55.9840012  85.9810028 150.1329956  56.5279999  85.8229980
 150.1950073  57.4809990  86.6060028 151.2319946  55.8009987  85.5100021
 152.1049957  56.0550003  85.9270020 151.1600037  55.0299988  84.8779984
 146.0079956  56.1370010  84.1839981 145.8619995  54.9150009  84.2509995
 145.1929932  56.9780006  84.8580017 145.3699951  57.9580002  84.8089981
 144.1000061  56.5569992  85.7300034 143.7140045  57.4469986  86.2040024
 144.4909973  55.8470001  86.4430008 142.9309998  55.8950005  85.0339966
 142.2799988  55.0139999  85.5930023 142.6289978  56.3040009  83.7870026
 143.1410065  57.0589981  83.3850021 141.5339966  55.7760010  82.9909973
 140.6190033  55.9519997  83.5370026 141.4770050  56.5509987  81.6460037
 142.4759979  56.4889984  81.1640015 141.2929993  57.6220016  81.8759995
 140.4239960  56.0839996  80.6139984 140.6219940  55.0250015  80.3450012
 138.9929962  56.1759987  81.1660004 138.7550049  57.2239990  81.4479980
 138.8719940  55.5309982  82.0630035 138.2630005  55.8440018  80.3980026
 140.5460052  56.9070015  79.3219986 141.5670013  56.8110008  78.8949966
 140.3500061  57.9809990  79.5279999 139.8130035  56.5530014  78.5670013
 141.5950012  54.2719994  82.7139969 140.5989990  53.5579987  82.8410034
 142.7839966  53.7490005  82.3470001 143.5859985  54.3409996  82.3119965
 142.9669952  52.3810005  81.8870010 142.3419952  52.2779999  81.0120010
 144.4349976  52.1850014  81.4189987 145.1150055  52.4440002  82.2580032
 144.6349945  52.9140015  80.6050034 144.8159943  50.7750015  80.9100037
 144.6340027  50.0349998  81.7180023 143.9880066  50.3629990  79.6829987
 144.1430054  51.0839996  78.8519974 142.9049988  50.3289986  79.9260025
 144.2960052  49.3540001  79.3339996 146.3139954  50.7190018  80.5749969
 146.9230042  50.9770012  81.4680023 146.5559998  51.4379997  79.7630005
 146.5970001  49.6990013  80.2379990 142.5220032  51.2490005  82.8310013
 141.8119965  50.3600006  82.3470001 142.7989960  51.1879997  84.1409988
 143.8430023  51.9620018  84.8160019 143.7489929  53.0530014  84.6289978
 144.8370056  51.6030006  84.4729996 142.3529968  50.0660019  84.9649963
 142.5549927  49.1389999  84.4489975 143.1730042  50.1860008  86.2639999
 144.0610046  49.5229988  86.1839981 142.6049957  49.9029999  87.1770020
 143.6430054  51.6430016  86.2959976 142.8410034  52.2910004  86.7089996
 144.5700073  51.7830009  86.8909988 140.8569946  50.1180000  85.2119980
 140.2160034  49.0660019  85.2360001 140.2709961  51.3139992  85.4100037
 140.8300018  52.1389999  85.4270020 138.8309937  51.4990005  85.5339966
 138.4839935  50.8600006  86.3320007 138.4750061  52.9420013  85.8860016
 138.8320007  53.6279984  85.0879974 136.9479980  53.1040001  86.0419998
 136.5549927  52.3750000  86.7819977 136.4190063  52.9519997  85.0770035
 136.7089996  54.1279984  86.4020004 139.1799927  53.3180008  87.2040024
 140.2839966  53.3460007  87.0839996 138.9279938  52.5849991  88.0000000
 138.8489990  54.3240013  87.5380020 138.0919952  51.0699997  84.2679977
 137.1049957  50.3310013  84.3109970 138.6069946  51.4790001  83.0889969
 139.3860016  52.1010017  83.0759964 138.1089935  51.0810013  81.7890015
 137.0700073  51.3709984  81.7289963 138.9199982  51.8370018  80.7040024
 140.0010071  51.6389999  80.8700027 138.7630005  52.9259987  80.8590012
 138.5950012  51.5079994  79.2310028 138.7940063  50.4300003  79.0490036
 137.1239929  51.7949982  78.8949966 136.8820038  52.8590012  79.1060028
 136.4479980  51.1510010  79.4970016 136.9270020  51.5989990  77.8190002
 139.5229950  52.3129997  78.3069992 140.5870056  52.0789986  78.5240021
 139.3650055  53.4020004  78.4580002 139.3170013  52.0719986  77.2419968
 138.1670074  49.5740013  81.5469971 137.1809998  48.9519997  81.1480026
 139.3130035  48.9309998  81.8570023 140.1139984  49.4490013  82.1439972
 139.4689941  47.4879990  81.8040009 139.2239990  47.1699982  80.8010025
 140.9429932  47.0960007  82.0879974 141.2610016  47.5810013  83.0350037
 141.5659943  47.5239983  81.2740021 141.2019958  45.5719986  82.1989975
 140.7799988  45.0670013  81.3030014 140.7039948  45.1510010  83.0979996
 142.6900024  45.2439995  82.2900009 143.2319946  44.6059990  81.3460007
 143.3350067  45.5989990  83.3140030 138.5269928  46.7270012  82.7330017
 137.8829956  45.7480011  82.3479996 138.3809967  47.2029991  83.9860001
 138.9329987  47.9790001  84.2809982 137.4420013  46.6500015  84.9520035
 137.6699982  45.5999985  85.0609970 137.5370026  47.3089981  86.3509979
 136.7940063  46.8269997  87.0210037 137.3079987  48.3940010  86.2910004
 138.8300018  47.1150017  86.9309998 139.4589996  47.5970001  86.3889999
 135.9889984  46.7340012  84.5110016 135.2330017  45.7669983  84.6360016
 135.5590057  47.8839989  83.9520035 136.1430054  48.6920013  83.9169998
 134.2310028  48.0159988  83.3889999 133.5570068  47.6679993  84.1579971
 133.8320007  49.4819984  83.0719986 134.4089966  49.8839989  82.2119980
 134.0169983  50.1230011  83.9609985 132.3520050  49.5149994  82.7639999
 131.8800049  49.5209999  81.4390030 132.5829926  49.5660019  80.6200027
 130.5079956  49.4119987  81.1729965 130.1560059  49.4070015  80.1520004
 129.5930023  49.3199997  82.2300034 128.5350037  49.2480011  82.0240021
 131.4239960  49.4249992  83.8170013 131.7769928  49.4039993  84.8369980
 130.0520020  49.3250008  83.5530014 129.3489990  49.2490005  84.3700027
 134.0000000  47.0950012  82.1849976 132.9429932  46.4780006  82.0640030
 134.9940033  46.9319992  81.2819977 135.8300018  47.4720001  81.3410034
 134.9049988  45.9760017  80.1900024 134.0440063  46.2470016  79.5970001
 136.1470032  46.0270004  79.2639999 136.1560059  45.1380005  78.5979996
 137.0690002  45.9889984  79.8830032 136.1909943  47.2630005  78.3499985
 136.1799927  48.1889992  78.9629974 135.2790070  47.2709999  77.7160034
 137.4409943  47.2550011  77.4479980 137.4510040  46.2960014  76.8860016
 138.3410034  47.2760010  78.0979996 137.4889984  48.4280014  76.4550018
 137.5339966  49.3930016  77.0029984 136.5820007  48.4220009  75.8130035
 138.6820068  48.3300018  75.5739975 138.6569977  47.4490013  75.0210037
 139.5599976  48.3400002  76.1309967 138.7100067  49.1269989  74.9059982
 134.6609955  44.5369987  80.6419983 133.8040009  43.8400002  80.0970001
 135.3639984  44.0789986  81.6989975 136.0950012  44.6349983  82.0869980
 135.0729980  42.8170013  82.3669968 135.1250000  42.0330009  81.6259995
 136.1119995  42.5110016  83.4489975 136.2050018  43.3820000  84.1320038
 135.7230072  41.2739983  84.2850037 135.5299988  40.4020004  83.6230011
 134.8179932  41.4580002  84.9029999 136.5509949  41.0079994  84.9759979
 137.4739990  42.2690010  82.7689972 137.8110046  43.1619987  82.2009964
 137.4100037  41.4090004  82.0699997 138.2460022  42.0390015  83.5339966
 133.6600037  42.7610016  82.9530029 132.9239960  41.7939987  82.7529984
 133.2129974  43.8300018  83.6500015 133.8269958  44.5989990  83.8079987
 131.8619995  43.9239998  84.1959991 131.7100067  43.0649986  84.8330002
 131.6900024  45.2099991  85.0559998 131.8139954  46.1180000  84.4270020
 132.5000000  45.2229996  85.8170013 130.4320068  45.2589989  85.7409973
 129.7420044  45.4620018  85.1060028 130.7559967  43.8610001  83.1460037
 129.7920074  43.1020012  83.2779999 130.9010010  44.6180000  82.0419998
 131.6670074  45.2519989  81.9759979 130.0200043  44.5719986  80.8949966
 129.0180054  44.7579994  81.2529984 130.4049988  45.6949997  79.8880005
 131.4579926  45.5629997  79.5619965 130.3220062  46.6819992  80.3899994
 129.5059967  45.7150002  78.6740036 128.1510010  46.0629997  78.8130035
 127.7620010  46.3199997  79.7870026 127.2990036  46.0699997  77.7020035
 126.2600021  46.3380013  77.8219986 127.7969971  45.7360001  76.4359970
 127.1409988  45.7430000  75.5790024 129.9989929  45.3919983  77.3970032
 131.0379944  45.1259995  77.2760010 129.1479950  45.3989983  76.2829971
 129.5330048  45.1430016  75.3069992 129.9929962  43.1980019  80.2229996
 128.9270020  42.6609993  79.9229965 131.1699982  42.5699997  80.0199966
 132.0310059  43.0239983  80.2360001 131.2830048  41.2319984  79.4759979
 130.7870026  41.2389984  78.5169983 132.7740021  40.8720016  79.2630005
 133.3049927  40.9519997  80.2360001 133.2160034  41.6349983  78.5859985
 133.0570068  39.4780006  78.6650009 132.6660004  38.7029991  79.3600006
 132.3739929  39.2869987  77.3020020 132.7200012  40.0620003  76.5849991
 131.2700043  39.3590012  77.3960037 132.6219940  38.2879982  76.8850021
 134.5709991  39.2560005  78.5329971 135.0679932  39.3549995  79.5220032
 135.0119934  40.0050011  77.8410034 134.7810059  38.2410011  78.1330032
 130.5870056  40.1650009  80.3219986 129.8450012  39.3289986  79.8030014
 130.7539978  40.1990013  81.6620026 131.4160004  40.8219986  82.0690002
 130.0200043  39.3370018  82.5820007 130.2259979  38.3139992  82.3050003
 130.4349976  39.5340004  84.0680008 129.7669983  38.9519997  84.7389984
 130.3480072  40.6090012  84.3369980 131.7769928  39.0919991  84.2910004
 132.0209961  39.3699989  85.1770020 128.5090027  39.5060005  82.5189972
 127.7659988  38.5229988  82.4560013 128.0079956  40.7599983  82.4950027
 128.6089935  41.5519981  82.5660019 126.5999985  41.0439987  82.3059998
 126.0479965  40.5400009  83.0859985 126.3639984  42.5620003  82.4160004
 126.9140015  43.1090012  81.6200027 126.7160034  42.9379997  83.4010010
 125.2819977  42.7970009  82.3209991 126.0449982  40.5499992  80.9660034
 125.0270004  39.8569984  80.9069977 126.7679977  40.8390007  79.8639984
 127.5820007  41.4090004  79.9489975 126.4589996  40.4249992  78.5130005
 125.4749985  40.8009987  78.2750015 127.4919968  41.0559998  77.5419998
 128.5110016  40.7389984  77.8509979 127.4410019  42.1590004  77.6640015
 127.3160019  40.7369995  76.0419998 127.4160004  39.6399994  75.8949966
 125.9359970  41.1710014  75.5220032 125.7939987  42.2620010  75.6750031
 125.1250000  40.6279984  76.0540009 125.8499985  40.9529991  74.4369965
 128.4290009  41.4199982  75.2310028 129.4290009  41.0880013  75.5820007
 128.3659973  42.5229988  75.3440018 128.3320007  41.1710014  74.1520004
 126.4020004  38.9099998  78.3389969 125.4909973  38.3619995  77.7099991
 127.3639984  38.1800003  78.9430008 128.1289978  38.6300011  79.3980026
 127.3639984  36.7340012  78.9720001 127.3389969  36.3969994  77.9459991
 128.6459961  36.1609993  79.6269989 128.6900024  36.4869995  80.6890030
 129.5260010  36.5999985  79.1090012 128.7230072  34.6150017  79.5469971
 128.7610016  34.3059998  78.4800034 127.8140030  34.1650009  80.0009995
 129.9309998  34.0209999  80.2610016 129.7220001  33.1370010  81.1380005
 131.0919952  34.3829994  79.9339981 126.1360016  36.1320000  79.6500015
 125.5459976  35.1829987  79.1360016 125.6839981  36.6819992  80.7990036
 126.1529999  37.4640007  81.2020035 124.5230026  36.1829987  81.5220032
 124.7180023  35.1500015  81.7689972 124.3160019  36.9809990  82.8339996
 123.8870010  37.9830017  82.6240005 125.3280029  37.1489983  83.2620010
 123.4970016  36.2449989  83.9290009 123.6549988  36.7719994  84.8939972
 123.8789978  35.2080002  84.0419998 121.9840012  36.1990013  83.6969986
 121.4039993  35.0750008  83.7180023 121.3470001  37.2770004  83.5520020
 123.2509995  36.2190018  80.6679993 122.4990005  35.2439995  80.6070023
 123.0250015  37.3160019  79.9089966 123.6210022  38.1110001  79.9909973
 121.9219971  37.4269981  78.9639969 121.0049973  37.2779999  79.5139999
 121.8860016  38.8170013  78.2529984 120.9339981  38.9370003  77.6940002
 122.7300034  38.8870010  77.5329971 122.0039978  39.9799995  79.2109985
 121.3590012  39.9850006  80.4639969 120.7350006  39.1539993  80.7539978
 121.5599976  41.0390015  81.3669968 121.0859985  41.0040016  82.3369980
 122.3889999  42.1139984  81.0169983 122.6360016  43.1640015  81.9329987
 122.1449966  42.9840012  82.7369995 122.7829971  41.0960007  78.8519974
 123.2659988  41.1209984  77.8860016 122.9810028  42.1529999  79.7490005
 123.6039963  42.9910011  79.4720001 121.9749985  36.3470001  77.8769989
 120.9739990  35.6990013  77.5699997 123.1719971  36.0979996  77.2990036
 123.9589996  36.6399994  77.5830002 123.4120026  35.0200005  76.3359985
 122.6940002  35.1370010  75.5380020 124.8119965  35.0750008  75.7139969
 125.5839996  35.0820007  76.5120010 124.9570007  36.2509995  74.9160004
 124.9140015  37.0079994  75.5049973 125.0790024  33.8849983  74.7730026
 124.2809982  33.8110008  74.0029984 125.1309967  32.9239998  75.3280029
 126.0520020  34.0190010  74.2529984 123.1719971  33.6290016  76.9069977
 122.4950027  32.7960014  76.3020020 123.6829987  33.3499985  78.1250000
 124.2480011  34.0260010  78.5920029 123.4599991  32.1080017  78.8450012
 123.8040009  31.2940006  78.2249985 124.2559967  32.1080017  80.1809998
 123.9440002  31.2500000  80.8140030 124.0019989  33.0379982  80.7330017
 125.7910004  32.0379982  80.0329971 126.2340012  32.3269997  81.0100021
 126.1320038  32.7809982  79.2799988 126.3030014  30.6429996  79.6289978
 125.8710022  30.3850002  78.6380005 125.9209976  29.8889999  80.3509979
 127.8349991  30.5100002  79.5120010 128.2400055  31.2399998  78.7779999
 128.0829926  29.4850006  79.1630020 128.5209961  30.7240009  80.8150024
 127.8889999  30.5149994  81.6139984 128.8679962  31.7000008  80.9100037
 129.3500061  30.1009998  80.8870010 121.9879990  31.8369999  79.1470032
 121.4670029  30.7479992  78.9059982 121.2620010  32.8559990  79.6399994
 121.7070007  33.7200012  79.8649979 119.8379974  32.7960014  79.8870010
 119.6559982  31.9510002  80.5329971 119.3970032  34.0740013  80.6299973
 119.5780029  34.9640007  79.9889984 120.0670013  34.1839981  81.5090027
 117.9319992  34.0730019  81.0970001 117.6320038  33.0709991  81.4710007
 117.2959976  34.2900009  80.2119980 117.6669998  35.1440010  82.1760025
 116.6399994  35.5379982  82.0220032 118.3629990  35.9959984  82.0210037
 117.7389984  34.6739998  83.6449966 116.8970032  33.9830017  83.8610001
 117.6529999  35.5550003  84.3160019 119.0019989  33.9659996  83.9710007
 119.8410034  34.5299988  83.7279968 119.0569992  33.0569992  83.4690018
 119.0540009  33.7599983  84.9889984 119.0029984  32.5730019  78.6279984
 118.1149979  31.7199993  78.5970001 119.3249969  33.2869987  77.5279999
 120.0179977  34.0019989  77.5849991 118.7139969  33.1139984  76.2220001
 117.6520004  33.2779999  76.3379974 119.2880020  34.1699982  75.2419968
 120.3929977  34.0579987  75.2040024 119.0759964  35.1749992  75.6640015
 118.7490005  34.1380005  73.7939987 118.9909973  33.1520004  73.3420029
 117.2259979  34.3310013  73.7389984 116.9430008  35.3040009  74.1959991
 116.7030029  33.5169983  74.2850037 116.8750000  34.3250008  72.6849976
 119.4469986  35.2150002  72.9479980 120.5479965  35.0639992  72.9540024
 119.2279968  36.2260017  73.3529968 119.0910034  35.1739998  71.8960037
 118.8870010  31.7029991  75.6589966 117.9499969  31.1009998  75.1330032
 120.0979996  31.1189995  75.8040009 120.8570023  31.6539993  76.1660004
 120.3750000  29.7250004  75.5039978 120.0849991  29.5620003  74.4759979
 121.9089966  29.4750004  75.6350021 122.2360001  29.7159996  76.6689987
 122.4520035  30.1560001  74.9449997 122.3389969  28.0380001  75.3420029
 122.8889999  27.3400002  76.1979980 122.0849991  27.5699997  74.0989990
 122.3509979  26.6310005  73.8820038 121.6699982  28.1630001  73.4079971
 119.5469971  28.7320004  76.3460007 119.0270004  27.7409992  75.8320007
 119.4020004  28.9880009  77.6630020 119.8970032  29.7530003  78.0680008
 118.6050034  28.1819992  78.5920029 118.9690018  27.1690006  78.5090027
 118.8140030  28.6110001  80.0530014 118.8259964  29.7210007  80.1060028
 120.0589981  28.1000004  80.5250015 120.2409973  28.5300007  81.3639984
 117.7369995  28.0849991  81.0220032 117.6470032  26.9799995  80.9430008
 116.7460022  28.5419998  80.8150024 118.0000000  28.3379993  82.0709991
 117.1129990  28.0760002  78.2730026 116.5390015  26.9850006  78.3399963
 116.4509964  29.1930008  77.9010010 116.9349976  30.0610008  77.8310013
 115.0199966  29.2350006  77.6259995 114.5189972  28.9109993  78.5250015
 114.5339966  30.6790009  77.3280029 113.4690018  30.6389999  77.0130005
 115.1259995  31.0690002  76.4729996 114.6589966  31.6459999  78.5289993
 115.7050018  31.6720009  78.9020004 114.0110016  31.3069992  79.3649979
 114.2740021  33.0760002  78.1429977 115.1090012  33.9809990  78.0630035
 112.9609985  33.3009987  77.8990021 112.6750031  34.2239990  77.6409988
 112.3030014  32.5509987  77.9729996 114.5329971  28.2980003  76.4729996
 113.5879974  27.4930000  76.7180023 115.0709991  28.3500004  75.3339996
 112.9469986 126.3010025 104.4680023 112.6740036 124.6060028 105.6640015
 113.2900009 125.2460022 104.5299988 114.3919983 125.2779999 104.6709976
 112.9929962 124.5390015 103.2009964 111.5790024 124.5729980 102.9410019
 113.3030014 123.4779968 103.3160019 111.2580032 123.7939987 101.7750015
 111.7409973 122.8000031 101.8860016 109.8750000 123.5429993 101.5670013
 108.9449997 124.4029999 102.2450027 109.2600021 124.5830002 103.2949982
 107.9950027 123.8320007 102.3300018 113.7460022 125.1439972 101.9990005
 113.4489975 126.2119980 101.9359970 115.1520004 124.9639969 102.2170029
 116.2440033 126.2249985 102.4020004 117.0220032 125.9260025 103.6890030
 115.4899979 127.5589981 102.5029984 117.1780014 126.1809998 101.1869965
 113.3430023 124.4769974 100.6800003 113.9789963 125.1940002  99.6080017
 113.6930008 123.4250031 100.7429962 114.3249969 124.4919968  98.5329971
 114.2249985 123.2779999  98.4079971 114.7389984 125.4150009  97.4089966
 114.0120010 126.2519989  97.3389969 114.7119980 124.8420029  96.4580002
 111.8209991 124.4300003 100.5199966 111.4369965 125.4720001 100.4830017
 111.3560028 123.7340012  99.3199997 111.0589981 122.7900009  99.4430008
 108.1839981 125.6060028 100.0910034 109.0680008 125.2910004  99.4970016
 107.1399994 124.6360016  99.9359970 106.9079971 124.5500031  99.0090027
 108.5879974 125.7310028 101.5640030 107.6760025 126.0820007 102.0930023
 109.6039963 126.7350006 101.8069992 109.3050003 128.0359955 101.2419968
 110.2809982 128.5659943 101.2300034 108.3499985 128.7290039 102.0520020
 110.0810013 129.9160004 103.5849991 108.9260025 131.2359924 101.7419968
 107.6080017 130.4730072 103.7730026 108.7710037 130.1560059 102.8219986
 107.7330017 126.9850006  99.6320038 106.9789963 127.3280029 100.3720016
 107.0309982 127.0189972  98.3809967 107.6569977 126.6890030  97.2529984
 108.8619995 126.5640030  97.1179962 106.5989990 126.4789963  96.1549988
 106.8740005 127.0970001  95.2750015 105.6259995 126.8470001  96.5479965
 108.9300003 127.9100037  99.7580032 109.7689972 127.3560028  99.2850037
 108.7919998 129.1860046  99.0569992 107.8690033 129.5370026  98.9179993
 116.1579971 125.8949966  97.7269974 116.1940002 126.2220001  98.7880020
 116.5019989 126.9889984  96.8679962 115.8970032 128.1360016  97.1539993
 115.2269974 128.3670044  98.1480026 116.0589981 129.1009979  95.9830017
 117.1350021 129.1470032  95.7109985 115.7350006 130.1089935  96.3219986
 115.2190018 128.6510010  94.7699966 114.1470032 128.5800018  95.0490036
 115.5559998 127.6360016  94.4690018 115.3600006 129.6049957  93.5749969
 116.4400024 129.7279968  93.3450012 114.9570007 130.6020050  93.8529968
 114.6480026 129.1130066  92.3020020 114.8270035 129.8560028  91.4960022
 113.5510025 129.0720062  92.4769974 115.1299973 127.7310028  91.8369980
 114.7300034 126.9619980  92.5319977 116.2379990 127.6920013  91.9049988
 114.7249985 127.3519974  90.4049988 113.6250000 127.4440002  90.2789993
 114.9929962 126.2850037  90.2570038 115.4449997 128.1799927  89.3310013
 116.4990005 128.3329926  89.6470032 114.9609985 129.1779938  89.2570038
 115.4530029 127.5049973  87.9530029 114.4059982 127.3249969  87.6269989
 115.9509964 126.5159988  88.0469971 116.1819992 128.3249969  86.8809967
 117.1760025 128.6349945  87.2689972 115.5960007 129.2449951  86.6669998
 116.3870010 127.5490036  85.5739975 115.4020004 127.2139969  85.1859970
 116.9820023 126.6360016  85.7890015 117.0820007 128.3699951  84.4810028
 118.0999985 128.6399994  84.8349991 116.5169983 129.3159943  84.3389969
 117.1940002 127.6800003  83.1100006 116.2060013 127.7529984  82.6070023
 117.9100037 128.2599945  82.4899979 117.6200027 126.2149963  83.1090012
 117.5709991 125.8040009  82.0780029 116.9380035 125.6169968  83.7509995
 118.6610031 126.1100006  83.4830017 117.2129974 124.7630005  97.5780029
 116.7689972 123.7959976  97.9000015 118.0299988 124.9990005  98.2929993
 117.8789978 124.5859985  96.1940002 118.6090012 123.7509995  96.2559967
 118.4530029 125.5080032  95.9609985 116.9250031 124.3130035  95.0230026
 116.2229996 125.1699982  94.9369965 116.3219986 123.4000015  95.2129974
 117.6510010 124.1880035  93.6740036 118.2040024 123.2259979  93.6250000
 118.3929977 125.0110016  93.5979996 116.6819992 124.3079987  92.4889984
 115.9729996 123.4520035  92.4960022 116.0849991 125.2330017  92.6409988
 117.3619995 124.4069977  91.1129990 118.1780014 125.1589966  91.1429977
 116.5999985 124.7649994  90.3880005 117.8899994 123.0579987  90.6070023
 118.7009964 122.6809998  91.2659988 117.0490036 122.3349991  90.6719971
 118.3679962 123.0869980  89.1470032 117.9049988 123.9540024  88.6289978
 119.4710007 123.2160034  89.1090012 117.9410019 121.8209991  88.3909988
 116.8339996 121.7539978  88.4520035 118.3509979 120.9209976  88.8949966
 118.3359985 121.7919998  86.9100037 118.1060028 122.7779999  86.4530029
 119.4309998 121.6230011  86.8330002 117.5930023 120.7149963  86.1309967
 118.0500031 120.5439987  85.1320038 117.6039963 119.7610016  86.7009964
 116.5309982 121.0059967  85.9830017 111.2060013 124.3359985  98.1250000
 111.5869980 125.4879990  97.9189987 110.5159988 123.5070038  97.0530014
 110.4160004 122.4619980  97.4169998 109.4980011 123.9179993  96.8809967
 111.3320007 123.5110016  95.7440033 112.3949966 123.3069992  95.9940033
 111.1449966 124.7730026  95.0940018 112.1279984 125.1770020  94.2969971
 113.2490005 124.6849976  94.2500000 111.8180008 126.6060028  93.8219986
 112.6439972 126.9440002  93.1600037 111.8030014 127.2570038  94.7220001
 110.4710007 126.7170029  93.0790024 110.2060013 127.7949982  93.0210037
 109.6640015 126.2149963  93.6539993 110.4960022 126.1819992  91.6399994
 110.7809982 125.1080017  91.6370010 111.2639999 126.7450027  91.0680008
 109.1350021 126.3450012  90.9410019 108.8000031 127.3980026  91.0589981
 108.3939972 125.6949997  91.4520035 109.1419983 126.0070038  89.4400024
 109.5080032 124.9660034  89.3059998 109.8440018 126.6900024  88.9150009
 107.7480011 126.1200027  88.7990036 107.3470001 127.1449966  88.9550018
 107.0780029 125.4089966  89.3270035 107.7080002 125.7890015  87.2969971
 108.2639999 124.8399963  87.1360016 108.2239990 126.5820007  86.7149963
 106.2770004 125.5920029  86.7669983 105.7119980 126.5469971  86.8219986
 105.7770004 124.8629990  87.4400024 106.1940002 125.0090027  85.3470001
 105.1569977 124.6480026  85.1790009 106.8710022 124.1299973  85.2969971
 106.5609970 125.9710007  84.2109985 105.9199982 126.8759995  84.2740021
 107.6149979 126.2959976  84.3470001 106.4179993 125.3649979  82.8150024
 105.3669968 125.0579987  82.6259995 106.7099991 126.1100006  82.0439987
 107.0729980 124.4729996  82.7089996 110.8119965 122.3809967  94.8219986
 109.8030014 122.6620026  94.4520035 110.6719971 121.4800034  95.4570007
 111.7030029 122.0100021  93.6250000 112.7369995 121.8040009  93.9759979
 111.7379990 122.8889999  92.9459991 111.1719971 120.7979965  92.8399963
 110.0830002 120.9499969  92.6790009 111.2959976 119.8789978  93.4520035
 111.8109970 120.5780029  91.4560013 111.3539963 119.6640015  91.0210037
 112.9029999 120.3949966  91.5550003 111.5630035 121.7409973  90.4830017
 110.4950027 122.0329971  90.5699997 112.1780014 122.6179962  90.7809982
 111.8219986 121.4150009  89.0039978 111.1999969 120.5380020  88.7249985
 112.8880005 121.1460037  88.8450012 111.4329987 122.5950012  88.0999985
 112.1090012 123.4530029  88.3000031 110.4000015 122.9010010  88.3720016
 111.4329987 122.2890015  86.5989990 112.4560013 122.0289993  86.2539978
 110.7779999 121.4079971  86.4290009 110.8880005 123.4550018  85.7620010
 109.8899994 123.7279968  86.1660004 111.5569992 124.3359985  85.8690033
 110.7330017 123.1269989  84.2740021 110.2570038 122.1269989  84.1849976
 111.7480011 123.0559998  83.8270035 109.8909988 124.1259995  83.4879990
 109.7850037 123.7890015  82.4349976 108.8769989 124.1969986  83.9349976
 110.3460007 125.1399994  83.5039978 106.4580002 124.9820023  95.7949982
 105.3970032 124.8529968  95.4929962 106.7369995 124.1480026  96.9240036
 106.7360001 123.2139969  96.6999969 107.3379974 124.5339966  94.6029968
 108.3949966 124.5179977  94.9430008 107.2460022 125.2710037  93.7770004
 106.9509964 123.1389999  94.0759964 105.8440018 123.0899963  93.9919968
 107.2720032 122.3590012  94.7979965 107.5070038 122.7959976  92.6859970
 108.6179962 122.7809982  92.6999969 107.2050018 123.6060028  91.9889984
 106.9840012 121.4479980  92.1689987 105.8830032 121.5339966  92.0410004
 107.1600037 120.6740036  92.9459991 107.6039963 120.9410019  90.8629990
 108.6959991 120.8020020  91.0090027 107.1699982 119.9390030  90.6589966
 107.3789978 121.8150024  89.6220016 107.9359970 122.7679977  89.7470016
 106.2949982 122.0390015  89.5299988 107.8420029 121.0930023  88.3499985
 107.2939987 120.1269989  88.3059998 108.9300003 120.8789978  88.4219971
 107.5540009 121.8470001  87.0520020 106.4929962 122.1750031  87.0589981
 108.1979980 122.7509995  86.9879990 107.7669983 120.9660034  85.8140030
 108.8389969 120.6890030  85.7200012 107.1800003 120.0370026  85.9779968
 107.2770004 121.5479965  84.4830017 106.3700027 122.1569977  84.6869965
 108.0530014 122.2249985  84.0640030 106.9049988 120.4980011  83.4499969
 106.4950027 120.9670029  82.5299988 106.1589966 119.8089981  83.9010010
 107.7929993 119.8820038  83.1900024 109.8659973 129.7779999  98.4940033
 111.0210037 129.4380035  98.7710037 109.5759964 130.8439941  97.4410019
 109.5510025 131.8450012  97.9209976 108.5810013 130.6329956  96.9940033
 110.6439972 130.7709961  96.3270035 111.0550003 129.7409973  96.2509995
 111.6989975 131.6860046  96.6100006 112.4570007 131.6289978  96.0240021
 110.0400009 131.1029968  94.9509964 109.7289963 132.1679993  94.9069977
 109.1200027 130.4889984  94.8499985 110.9400024 130.7619934  93.7490005
 111.4250031 129.7799988  93.9329987 111.7429962 131.5200043  93.6230011
 110.1080017 130.6430054  92.4670029 109.6669998 131.6239929  92.1890030
 109.2679977 129.9550018  92.7030029 110.8410034 130.0350037  91.2639999
 110.0609970 129.6390076  90.5790024 111.4629974 129.1730042  91.5859985
 111.6900024 131.0339966  90.4690018 111.0930023 131.9570007  90.3099976
 112.5989990 131.3040009  91.0469971 112.0859985 130.4720001  89.0960007
 111.1549988 130.1589966  88.5770035 112.7099991 129.5630035  89.2310028
 112.8170013 131.4709930  88.1900024 112.2389984 132.4190063  88.1630020
 113.8199997 131.6909943  88.6159973 112.9489975 130.9459991  86.7570038
 113.5650024 130.0209961  86.7559967 111.9359970 130.6670074  86.3960037
 113.5439987 131.9609985  85.7740021 112.9570007 132.9010010  85.8430023
 114.5950012 132.1940002  86.0479965 113.4850006 131.4459991  84.3290024
 112.4479980 131.1060028  84.1269989 114.1480026 130.5590057  84.2389984
 113.8600006 132.4819946  83.2770004 113.7929993 132.0410004  82.2600021
 113.1640015 133.3480072  83.3160019 114.8949966 132.8529968  83.4359970
 114.7750015 124.0940018 106.8820038 115.6869965 124.5940018 107.6019974
 114.7500000 122.9110031 106.4380035 113.3820038 124.8560028 106.8870010
 112.3410034 126.9820023 107.3310013 111.7129974 126.8369980 106.4260025
 113.5879974 126.2760010 107.1360016 112.5230026 124.2379990 108.0039978
 113.1240005 124.2310028 108.9380035 112.3150024 123.1790009 107.7399979
 111.2440033 124.9649963 108.2699966 110.6200027 124.8939972 107.3539963
 110.5709991 124.3479996 109.3820038 111.5370026 126.4329987 108.5159988
 110.5640030 126.9690018 108.5400009 112.1969986 126.6610031 109.7699966
 111.6139984 126.3899994 110.4840012 112.6340027 128.4759979 107.4459991
 113.2819977 128.6360016 108.3339996 111.4179993 129.2279968 107.6200027
 111.6259995 130.1040039 107.2890015 113.3649979 128.9909973 106.2109985
 114.2720032 128.3789978 106.0159988 112.7050018 128.8880005 105.3229980
 113.7549973 130.3710022 106.3659973 114.6640015 130.3860016 106.6740036
 108.3669968 125.2009964 108.7190018 107.6940002 125.1309967 107.6549988
 108.3099976 126.1230011 109.5820007 109.2279968 123.9390030 109.1269989
 109.8710022 121.6900024 108.5370026 110.9179993 121.9879990 108.7590027
 109.1569977 122.8830032 108.1220016 108.7450027 123.4049988 110.4909973
 107.6559982 123.1989975 110.4079971 108.8659973 124.1979980 111.2600021
 109.4530029 122.1660004 110.9209976 110.5339966 122.3909988 111.0410004
 108.9459991 121.7440033 112.1859970 109.4700012 122.1210022 112.8970032
 109.3290024 121.0970001 109.8440018 109.9830017 120.2500000 110.1429977
 107.9970016 120.5869980 109.6989975 107.6900024 120.2919998 110.5599976
 109.9680023 120.6650009 107.4079971 108.9509964 120.2730026 107.1930008
 110.8219986 119.5770035 107.8050003 111.1279984 119.1999969 106.9759979
 110.5370026 121.2890015 106.1380005 109.9120026 122.1529999 105.8270035
 111.5619965 121.6709976 106.3320007 110.5650024 120.3560028 105.0540009
 109.6510010 120.3529968 104.7610016  74.8399963 136.1470032 104.7360001
  76.3649979 135.3840027 105.9560013  75.9459991 136.1909943 104.8379974
  76.2129974 137.2559967 105.0100021  76.5979996 135.7290039 103.5350037
  76.1729965 134.3849945 103.2549973  77.6959991 135.7319946 103.7080002
  76.9499969 133.8339996 102.1859970  78.0210037 134.0339966 102.4020004
  76.8560028 132.4279938 102.0130005  75.7600021 131.7550049 102.6529999
  75.5049973 132.2010040 103.6380005  76.1090012 130.7259979 102.8850021
  76.2969971 136.6150055 102.3109970  75.1940002 136.6360016 102.1859970
  76.8460007 137.9140015 102.5810013  75.9349976 139.3209991 102.5729980
  76.7119980 140.3190002 103.4390030  74.5550003 139.0200043 103.1719971
  75.8450012 139.8119965 101.1250000  76.9130020 136.0269928 101.0329971
  76.4349976 136.7859955  99.9059982  78.0120010 136.1139984 101.1679993
  77.3109970 137.0579987  98.9329987  78.4860001 136.7089996  98.9309998
  76.5770035 137.4530029  97.6620026  75.5920029 136.9389954  97.6429977
  77.1750031 137.1049957  96.7929993  76.6230011 134.5260010 100.8779984
  75.5339966 134.3970032 100.6959991  77.3509979 133.8939972  99.7809982
  78.1869965 133.4120026 100.0299988  74.8020020 131.0809937 100.3820038
  75.3870010 131.8500061  99.8339996  75.5559998 129.8619995 100.4430008
  76.0429993 129.7169952  99.6289978  74.5100021 131.6029968 101.7890015
  73.8929977 130.8269958 102.2910004  73.7300034 132.8190002 101.7880020
  72.4909973 132.7129974 101.0490036  72.1350021 133.7599945 100.9489975
  71.5469971 131.8990021 101.7450027  70.2890015 133.5130005 103.3160019
  69.3820038 133.0939941 100.9820023  69.2979965 131.2559967 102.7229996
  70.0640030 132.4830017 102.2080002  73.4670029 130.8869934  99.6920013
  72.8629990 130.2339935 100.3580017  73.5220032 130.1649933  98.4619980
  74.2860031 130.6369934  97.4860001  74.5749969 131.8059998  97.3040009
  74.5049973 129.5079956  96.4929962  74.0400009 129.7839966  95.5230026
  74.0039978 128.5890045  96.8659973  72.7730026 132.2330017  99.6250000
  73.5240021 132.9400024  99.2129974  71.6139984 132.2510071  98.7440033
  71.1340027 131.3869934  98.6110001  76.4339981 138.9779968  97.6159973
  75.9749985 139.3119965  98.5719986  75.5999985 139.3639984  96.5130005
  74.3290024 138.9980011  96.5899963  73.7549973 138.6139984  97.5979996
  73.6259995 139.2870026  95.2610016  73.9209976 140.2969971  94.9029999
  72.5329971 139.2899933  95.4599991  73.9550018 138.2200012  94.1940002
  73.7870026 137.2030029  94.6110001  75.0289993 138.2980042  93.9240036
  73.0930023 138.3719940  92.9319992  73.2440033 139.3919983  92.5189972
  72.0210037 138.2799988  93.2080002  73.4089966 137.3600006  91.8180008
  72.7360001 137.5749969  90.9599991  73.1819992 136.3289948  92.1660004
  74.8659973 137.4069977  91.3300018  75.5110016 136.9539948  92.1129990
  75.1859970 138.4640045  91.2050018  75.0910034 136.6589966  90.0070038
  74.5559998 135.6869965  90.0449982  76.1750031 136.4409943  89.8990021
  74.6370010 137.4510040  88.7710037  75.2539978 138.3730011  88.6999969
  73.5749969 137.7550049  88.8899994  74.7740021 136.6600037  87.4629974
  74.0640030 135.8059998  87.4769974  75.8010025 136.2429962  87.4000015
  74.5080032 137.5149994  86.2149963  75.2760010 138.3159943  86.1579971
  73.5130005 137.9989929  86.3170013  74.5159988 136.7039948  84.9150009
  73.6729965 135.9810028  84.9420013  75.4589996 136.1190033  84.8639984
  74.4130020 137.5549927  83.6419983  75.3290024 138.1790009  83.5640030
  73.5350037 138.2319946  83.7119980  74.2870026 136.6959991  82.3789978
  75.0260010 135.8699951  82.4530029  73.2760010 136.2350006  82.3720016
  74.5070038 137.4440002  81.0680008  74.2699966 136.7920074  80.1999969
  75.5680008 137.7619934  80.9820023  73.8659973 138.3500061  81.0220032
  77.8040009 139.7010040  97.4830017  78.6070023 139.0959930  97.9550018
  77.7229996 140.6410065  98.0709991  78.2470016 140.1109924  96.0579987
  79.2050018 140.6690063  96.1380005  77.4919968 140.8179932  95.6510010
  78.4400024 138.9739990  95.0390015  77.5120010 138.3670044  94.9759979
  79.2649994 138.3049927  95.3649979  78.7369995 139.5339966  93.6380005
  79.6689987 140.1369934  93.6760025  77.9049988 140.2129974  93.3560028
  78.8769989 138.4730072  92.5360031  79.7649994 137.8390045  92.7429962
  77.9830017 137.8130035  92.5380020  79.0159988 139.1139984  91.1460037
  79.8160019 139.8840027  91.1819992  78.0650024 139.6280060  90.8929977
  79.3619995 138.1190033  90.0309982  80.3509979 137.6660004  90.2570038
  78.6149979 137.2969971  90.0100021  79.4229965 138.7819977  88.6470032
  78.3929977 139.0339966  88.3140030  79.9950027 139.7299957  88.7379990
  80.1119995 137.9149933  87.5859985  79.5739975 136.9479980  87.4860001
  81.1399994 137.6849976  87.9390030  80.1920013 138.5879974  86.2080002
  79.1819992 138.5610046  85.7470016  80.4690018 139.6549988  86.3489990
  81.2060013 137.9309998  85.2699966  81.1859970 138.4069977  84.2659988
  82.2320023 138.0189972  85.6880035  80.9710007 136.8520050  85.1490021
  76.9690018 133.9190063  98.4940033  75.9120026 134.4349976  98.1340027
  77.9540024 133.2890015  97.5199966  78.9739990 133.3630066  97.9550018
  77.7020035 132.2160034  97.3789978  77.9390030 134.0350037  96.1719971
  77.9599991 135.1280060  96.3700027  76.7789993 133.6190033  95.4400024
  76.1809998 134.5489960  94.6999969  76.4869995 135.7339935  94.6650009
  74.8000031 134.0269928  94.2740021  74.2350006 134.8690033  93.8199997
  74.2689972 133.7030029  95.1940002  74.8880005 132.8509979  93.2839966
  73.8960037 132.3520050  93.2770004  75.6340027 132.1000061  93.6230011
  75.2009964 133.2729950  91.8430023  76.2669983 133.5709991  91.7490005
  74.5770035 134.1589966  91.6009979  74.8639984 132.1670074  90.8280029
  73.8320007 131.8170013  91.0459976  75.5490036 131.3040009  90.9660034
  74.8929977 132.6159973  89.3580017  75.9449997 132.6929932  89.0110016
  74.4339981 133.6250000  89.2799988  74.1080017 131.6730042  88.4309998
  73.0630035 131.6219940  88.8050003  74.5400009 130.6519928  88.4889984
  74.0719986 132.1280060  86.9629974  75.1009979 132.0709991  86.5479965
  73.7460022 133.1889954  86.9169998  73.1309967 131.2830048  86.0910034
  72.0790024 131.4530029  86.4059982  73.3629990 130.2120056  86.2689972
  73.2480011 131.5319977  84.5800018  72.6579971 130.7530060  84.0520020
  74.3119965 131.4010010  84.2860031  72.7639999 132.9060059  84.1039963
  71.6880035 133.0030060  84.3629990  73.3160019 133.6929932  84.6610031
  72.9400024 133.1479950  82.6060028  72.3860016 132.3820038  82.0220032
  72.5530014 134.1540070  82.3339996  74.0149994 133.0980072  82.3300018
  79.2149963 133.6679993  95.3740005  79.2289963 132.5670013  95.2289963
  80.1029968 133.9389954  95.9840012  79.3410034 134.3450012  94.0029984
  79.3860016 135.4479980  94.1269989  78.4309998 134.1080017  93.4120026
  80.5589981 133.8509979  93.2180023  80.4950027 132.7440033  93.1370010
  81.4869995 134.0970001  93.7750015  80.6620026 134.4290009  91.8010025
  81.5130005 133.9349976  91.2850037  80.8840027 135.5149994  91.8590012
  79.4140015 134.2579956  90.9270020  79.0080032 133.2319946  91.0550003
  78.6380005 134.9810028  91.2570038  79.7220001 134.4750061  89.4420013
  80.3550034 133.6289978  89.0989990  80.3040009 135.4120026  89.3079987
  78.4660034 134.5420074  88.5709991  78.0049973 135.5489960  88.6549988
  77.7360001 133.7989960  88.9570007  78.7419968 134.2039948  87.1050034
  79.5019989 134.8950043  86.6819992  79.1729965 133.1809998  87.0749969
  77.4850006 134.2299957  86.2340012  76.6500015 133.7610016  86.7979965
  77.1999969 135.2799988  86.0110016  77.6600037 133.4550018  84.9319992
  77.9290009 132.4129944  85.2099991  78.5110016 133.8829956  84.3619995
  76.4199982 133.4349976  84.0559998  75.5520020 133.0690002  84.6460037
  76.1859970 134.4620056  83.7040024  76.5640030 132.7760010  83.1740036
  75.9980011 129.2039948  96.3160019  76.0350037 128.1589966  95.9400024
  76.7020035 129.2749939  97.5569992  77.5199966 128.7729950  97.5930023
  76.6449966 130.0970001  95.2409973  76.6559982 131.1529999  95.5839996
  75.9889984 130.0310059  94.3460007  78.0439987 129.6759949  94.7689972
  78.0550003 128.5700073  94.6610031  78.8160019 129.9550018  95.5169983
  78.4039993 130.2550049  93.3909988  78.4509964 131.3639984  93.4410019
  77.5869980 129.9920044  92.6859970  79.7300034 129.7079926  92.8450012
  79.6689987 128.5989990  92.8130035  80.5370026 129.9810028  93.5579987
  80.1289978 130.2220001  91.4530029  80.1660004 131.3320007  91.4660034
  81.1549988 129.8549957  91.2360001  79.1999969 129.7579956  90.3239975
  78.1849976 130.1779938  90.4899979  79.1210022 128.6499939  90.3629990
  79.6989975 130.1710052  88.9339981  80.7160034 129.7519989  88.7760010
  79.7829971 131.2769928  88.8830032  78.7839966 129.6940002  87.7969971
  78.6679993 128.5910034  87.8550034  77.7809982 130.1540070  87.9280014
  79.3300018 130.0729980  86.4150009  79.4609985 131.1759949  86.3840027
  80.3369980 129.6219940  86.2799988  78.4499969 129.6750031  85.2259979
  78.3590012 128.5690002  85.1940002  77.4349976 130.0989990  85.3789978
  78.9970016 130.1770020  83.8909988  78.3030014 129.9309998  83.0589981
  79.1449966 131.2779999  83.9290009  79.9860001 129.7129974  83.6869965
  71.2559967 133.3459930  98.0520020  71.7659988 134.4510040  98.2630005
  70.1999969 133.1289978  96.9729996  69.2679977 133.6690063  97.2470016
  69.9729996 132.0429993  96.9150009  70.7369995 133.5989990  95.6070023
  71.8099976 133.3280029  95.5149994  70.5749969 135.0110016  95.4929962
  70.9530029 135.4029999  94.7020035  69.9810028 132.9170074  94.4469986
  68.9219971 133.2519989  94.4459991  69.9860001 131.8220062  94.6340027
  70.6039963 133.1540070  93.0599976  71.6740036 132.8589935  93.0899963
  70.5569992 134.2339935  92.8030014  69.9089966 132.3399963  91.9599991
  68.8440018 132.6459961  91.8809967  69.9270020 131.2720032  92.2639999
  70.5810013 132.4600067  90.5830002  70.1259995 131.7059937  89.9049988
  71.6600037 132.2089996  90.6740036  70.4390030 133.8439941  89.9309998
  69.3659973 134.1300049  89.9290009  70.9960022 134.5950012  90.5309982
  70.9560013 133.8670044  88.4869995  70.4649963 133.0440063  87.9250031
  72.0490036 133.6640015  88.4830017  70.6869965 135.1860046  87.7509995
  69.6179962 135.4570007  87.8820038  71.3069992 135.9940033  88.1969986
  70.9800034 135.0809937  86.2500000  72.0490036 134.8159943  86.0999985
  70.3710022 134.2510071  85.8330002  70.6699982 136.3589935  85.4639969
  69.6740036 136.7460022  85.7659988  71.4309998 137.1289978  85.7180023
  70.6780014 136.1289978  83.9489975  71.6859970 135.7519989  83.6740036
  69.9479980 135.3269958  83.7070007  70.3570023 137.3719940  83.1200027
  70.3909988 137.1309967  82.0350037  69.3440018 137.7559967  83.3649979
  71.0989990 138.1739960  83.3199997  77.2639999 137.2460022 107.3010025
  76.9020004 138.2729950 107.9410019  78.4489975 136.9620056 106.9629974
  76.2170029 136.0590057 107.2089996  73.9029999 135.4889984 107.5019989
  73.9940033 134.8540039 106.5950012  74.8659973 136.5619965 107.4020004
  76.5820007 135.0149994 108.2870026  76.7289963 135.5670013 109.2399979
  77.5569992 134.5489960 108.0299988  75.5550003 133.9499969 108.5329971
  75.5149994 133.2980042 107.6350021  75.9800034 133.1900024 109.6790009
  74.1859970 134.5850067 108.7060013  73.4290009 133.7720032 108.6839981
  74.0479965 135.2729950 109.9560013  74.0770035 134.6260071 110.6640015
  72.4860001 136.0579987 107.4980011  72.3550034 136.6920013 108.4010010
  71.5139999 134.9940033 107.5289993  70.6959991 135.3950043 107.2269974
  72.2429962 136.9140015 106.2600021  73.0149994 137.7100067 106.1969986
  72.3330002 136.2870026 105.3479996  70.9449997 137.5410004 106.3020020
  70.8190002 138.0010071 105.4690018  74.2429962 131.4660034 109.5329971
  73.8010025 130.9620056 108.4639969  73.5670013 131.7570038 110.5609970
  75.7860031 131.7790070 109.6190033  77.9369965 131.3659973 108.6080017
  78.1159973 132.4620056 108.6409988  76.5059967 131.1620026 108.5139999
  76.3610001 131.2850037 110.9609985  76.1169968 130.2059937 111.0599976
  75.8529968 131.8130035 111.7969971  77.8389969 131.4660034 111.0709991
  78.0780029 132.5500031 111.0120010  78.2850037 130.9869995 112.3379974
  78.2770004 131.6979980 112.9830017  78.5319977 130.7859955 109.8990021
  79.6080017 131.0599976 109.9420013  78.4440002 129.3540039 109.9520035
  78.7689972 129.0679932 110.8089981  78.6289978 130.8630066 107.3440018
  78.5100021 129.7599945 107.2850037  80.0319977 131.1829987 107.3880005
  80.3420029 131.0449982 106.4899979  78.0199966 131.4940033 106.0970001
  76.9260025 131.3009949 106.0709991  78.1660004 132.5950012 106.1259995
  78.6080017 130.9530029 104.8970032  78.2839966 131.4709930 104.1559982
  39.7890015  98.9309998 104.3659973  40.9000015  97.5550003 105.4869995
  40.8079987  98.4889984 104.3939972  41.5260010  99.3239975 104.5390015
  41.1059990  97.8109970 103.0559998  40.2060013  96.7089996 102.8720016
  42.1469994  97.4280014 103.1230011  40.6539993  95.8789978 101.7969971
  41.7319984  95.6650009 101.9589996  40.0200005  94.6100006 101.6959991
  38.8419991  94.3990021 102.4940033  38.9080009  94.9069977 103.4800034
  38.7919998  93.3140030 102.7259979  40.9920006  98.7220001 101.8209991
  39.9410019  99.0790024 101.7819977  41.9300003  99.7949982 101.9909973
  41.4930000 101.4160004 101.9589996  42.5089989 102.1360016 102.8560028
  40.0660019 101.5660019 102.5059967  41.6119995 101.8970032 100.5070038
  41.2709999  97.9400024 100.5250015  40.9199982  98.7809982  99.4089966
  42.3549995  97.6969986 100.5550003  41.7449989  98.7850037  98.3580017
  42.7700005  98.1200027  98.2710037  41.0610008  99.4260025  97.1559982
  39.9630013  99.4209976  97.3190002  41.2849998  98.8059998  96.2610016
  40.5349998  96.5920029 100.4619980  39.4560013  96.8010025 100.2979965
  41.0000000  95.7009964  99.4010010  41.6290016  94.9820023  99.6880035
  37.3969994  94.0810013 100.4179993  38.2509995  94.4219971  99.7939987
  37.4770012  92.6529999 100.5189972  36.7309990  92.2939987 101.0049973
  37.5429993  94.7689972 101.7809982  36.7140007  94.4020004 102.4240036
  37.4080009  96.2089996 101.7229996  36.2519989  96.6790009 100.9950027
  36.4630013  97.7529984 100.8020020  35.0810013  96.5220032 101.7919998
  34.9249992  98.9619980 102.6449966  33.3180008  98.1529999 100.8470001
  33.1150017  97.2829971 103.2099991  34.0719986  97.7979965 102.1320038
  36.0979996  94.5339966  99.7829971  35.2989998  94.3369980 100.5289993
  35.6520004  93.8460007  98.6110001  36.4690018  93.7190018  97.5739975
  37.5559998  94.2559967  97.4560013  35.6430016  93.1760025  96.4110031
  35.6170006  93.9509964  95.6149979  34.6020012  92.9860001  96.7490005
  36.1920013  96.0319977  99.6129990  37.1800003  96.2149963  99.1389999
  35.1790009  96.6070023  98.7460022  34.2830009  96.1699982  98.7429962
  41.5960007 100.8610001  96.9909973  41.4679985 101.3750000  97.9680023
  40.8680000 101.5630035  95.9779968  39.6170006 101.9029999  96.2360001
  39.0589981 101.8069992  97.3199997  39.1069984 102.7779999  95.0800018
  39.8300018 103.6100006  94.9469986  38.1259995 103.2080002  95.3740005
  38.9739990 101.9869995  93.7590027  38.0929985 101.3119965  93.8059998
  39.8790016 101.3570023  93.6240005  38.8619995 102.9029999  92.5299988
  39.7859993 103.5149994  92.4619980  38.0060005 103.5989990  92.6630020
  38.6809998 102.1419983  91.2040024  38.6920013 102.8740005  90.3690033
  37.6870003 101.6470032  91.2020035  39.7550011 101.0719986  90.9479980
  39.6489983 100.2760010  91.7160034  40.7649994 101.5179977  91.0690002
  39.6599998 100.4079971  89.5670013  38.6059990 100.1360016  89.3489990
  40.2470016  99.4649963  89.5979996  40.2200012 101.2679977  88.4229965
  41.2210007 101.6520004  88.7129974  39.5489998 102.1380005  88.2610016
  40.3569984 100.4729996  87.1179962  39.3610001 100.0569992  86.8519974
  41.0439987  99.6169968  87.2919998  40.8689995 101.2880020  85.9229965
  41.8569984 101.7330017  86.1709976  40.1570015 102.1169968  85.7269974
  40.9949989 100.4329987  84.6539993  40.0299988  99.9049988  84.5000000
  41.7820015  99.6660004  84.8150024  41.2929993 101.2350006  83.3789978
  42.2639999 101.7630005  83.4950027  40.5009995 102.0059967  83.2610016
  41.3349991 100.3730011  82.1050034  40.3559990  99.8580017  81.9990005
  41.4510002 101.0479965  81.2300034  42.4550018  99.3270035  82.0759964
  42.4459991  98.7710037  81.1139984  42.3289986  98.5950012  82.9029999
  43.4449997  99.8160019  82.1920013  43.1090012 100.9580002  96.6320038
  43.6809998 100.1399994  97.1200027  43.4650002 101.9100037  97.0800018
  43.4780006 101.0350037  95.1289978  44.5559998 101.2910004  95.0429993
  42.9160004 101.8740005  94.6650009  43.2309990  99.7669983  94.2990036
  42.2050018  99.3850021  94.4850006  43.9539986  98.9830017  94.6119995
  43.3499985 100.0120010  92.7860031  44.2589989 100.6179962  92.5810013
  42.4700012 100.6029968  92.4540024  43.4379997  98.7200012  91.9589996
  44.4119987  98.2320023  92.1770020  42.6269989  98.0260010  92.2679977
  43.3199997  98.9629974  90.4489975  43.9879990  99.8030014  90.1630020
  42.2789993  99.2699966  90.2129974  43.7060013  97.7470016  89.5940018
  44.7939987  97.5699997  89.7279968  43.1669998  96.8420029  89.9489975
  43.4150009  97.9449997  88.0979996  42.3240013  97.8270035  87.9250031
  43.6829987  98.9850006  87.8130035  44.1899986  96.9820023  87.1869965
  43.9930000  95.9410019  87.5210037  45.2770004  97.1770020  87.3050003
  43.8069992  97.1080017  85.7050018  42.7220001  96.8909988  85.6090012
  43.9650002  98.1600037  85.3830032  44.5839996  96.1699982  84.7779999
  44.2379990  96.2919998  83.7289963  45.6720009  96.3909988  84.8190002
  44.4249992  95.1119995  85.0770035  40.5550003  95.6849976  98.1330032
  39.7949982  96.5429993  97.6869965  41.0460014  94.5039978  97.3010025
  41.9519997  94.0790024  97.7829971  40.2570000  93.7210007  97.2829971
  41.4080009  94.9300003  95.8649979  42.0499992  95.8349991  95.9209976
  40.1839981  95.1320038  95.1429977  40.1629982  96.1829987  94.3270035
  41.0660019  96.9940033  94.1900024  38.7070007  96.4720001  93.9349976
  38.6679993  97.4530029  93.4150009  38.1269989  96.5520020  94.8789978
  38.1100006  95.3580017  93.0540009  37.0050011  95.3980026  93.1640015
  38.4469986  94.3629990  93.4140015  38.4329987  95.4779968  91.5579987
  39.5239983  95.3560028  91.3870010  38.1430016  96.4929962  91.2089996
  37.6549988  94.4329987  90.7409973  36.5859985  94.4889984  91.0400009
  38.0229988  93.4189987  91.0059967  37.7260017  94.6060028  89.2170029
  38.7680016  94.4380035  88.8690033  37.4410019  95.6470032  88.9520035
  36.7830009  93.6320038  88.4899979  35.7579994  93.7570038  88.9000015
  37.1139984  92.5940018  88.7089996  36.7239990  93.8300018  86.9690018
  37.7389984  93.6699982  86.5479965  36.4280014  94.8779984  86.7500000
  35.7360001  92.8830032  86.2710037  34.7169991  93.0350037  86.6869965
  36.0439987  91.8389969  86.4929962  35.6800003  93.0479965  84.7429962
  35.1180000  92.1849976  84.3259964  36.7120018  93.0139999  84.3330002
  34.9860001  94.3239975  84.2549973  33.9700012  94.3759995  84.6999969
  35.5670013  95.1989975  84.6190033  34.8740005  94.4020004  82.7320023
  34.2750015  93.5510025  82.3420029  34.3880005  95.3519974  82.4219971
  35.8849983  94.3539963  82.2720032  42.2200012  93.8010025  95.1800003
  41.5870018  92.8889999  95.1439972  43.1059990  93.5719986  95.8089981
  42.7060013  94.1200027  93.7559967  43.3779984  95.0039978  93.7770004
  41.8190002  94.3820038  93.1399994  43.4269981  92.9339981  93.0979996
  42.7420006  92.0599976  93.1279984  44.3330002  92.6719971  93.6859970
  43.8269997  93.1640015  91.6309967  44.2700005  92.2220001  91.2450027
  44.6059990  93.9540024  91.5719986  42.6450005  93.5490036  90.7289963
  41.8030014  92.8529968  90.9309998  42.3050003  94.5759964  90.9850006
  42.9589996  93.4869995  89.2289963  43.2220001  92.4410019  88.9649963
  43.8370018  94.1299973  89.0029984  41.7729988  93.9390030  88.3659973
  41.5740013  95.0139999  88.5640030  40.8709984  93.3649979  88.6660004
  41.9990005  93.7350006  86.8639984  42.9220009  94.2730026  86.5579987
  42.1549988  92.6520004  86.6709976  40.8260002  94.2289963  86.0080032
  39.9070015  93.6910019  86.3259964  40.6699982  95.3130035  86.1920013
  41.0309982  93.9940033  84.5080032  41.1809998  92.9059982  84.3460007
  41.9580002  94.5149994  84.1849976  39.8580017  94.4639969  83.6500015
  38.9259987  93.9430008  83.9580002  39.7029991  95.5569992  83.7740021
  40.0470009  94.2500000  82.5759964  36.2340012  91.8710022  95.8470001
  35.4799995  91.4509964  95.1480026  36.4290009  90.9150009  96.8840027
  37.2470016  90.9980011  97.3799973  37.5250015  92.0770035  95.0289993
  38.3370018  92.4929962  95.6630020  37.2830009  92.8320007  94.2500000
  38.0279999  90.8140030  94.3109970  37.1660004  90.3209991  93.8119965
  38.4389992  90.1009979  95.0559998  39.0890007  91.1169968  93.2440033
  39.9570007  91.6380005  93.7020035  38.6459999  91.8050003  92.4929962
  39.5740013  89.8420029  92.5410004  38.6940002  89.2200012  92.2710037
  40.1850014  89.2549973  93.2600021  40.3930016  90.0869980  91.2639999
  41.2630005  90.7429962  91.4840012  40.7919998  89.1070023  90.9250031
  39.5639992  90.6890030  90.1200027  39.4420013  91.7809982  90.2839966
  38.5530014  90.2300034  90.1419983  40.1580009  90.4459991  88.7249985
  40.3289986  89.3560028  88.5930023  41.1389999  90.9599991  88.6439972
  39.2280006  90.9440002  87.6110001  38.2089996  90.5380020  87.7860031
  39.1619987  92.0520020  87.6719971  39.6669998  90.5609970  86.1930008
  40.6479988  91.0390015  85.9830017  39.7980003  89.4599991  86.1240005
  38.6549988  91.0250015  85.1389999  37.6660004  90.5680008  85.3600006
  38.5410004  92.1250000  85.2440033  39.0400009  90.7109985  83.6989975
  38.2770004  91.1139984  82.9990005  40.0229988  91.1679993  83.4570007
  39.1090012  89.6129990  83.5469971  35.4220009  97.6869965  97.9850006
  36.4939995  98.2910004  98.0400009  34.3059998  98.1019974  97.0339966
  33.6040001  98.7829971  97.5599976  33.7540016  97.1849976  96.7369995
  34.8839989  98.7710037  95.7710037  35.7989998  98.2300034  95.4489975
  35.1899986 100.1370010  96.0439987  35.6769981 100.5910034  95.3529968
  33.8750000  98.7200012  94.6070023  33.0200005  99.3960037  94.8239975
  33.4749985  97.6849976  94.5410004  34.4869995  99.0670013  93.2399979
  35.3269997  98.3679962  93.0429993  34.9020004 100.0979996  93.2570038
  33.4700012  98.9530029  92.0979996  32.7210007  99.7689972  92.1819992
  32.9290009  97.9879990  92.2040024  34.1150017  98.9789963  90.7060013
  33.3269997  98.7779999  89.9489975  34.8559990  98.1539993  90.6380005
  34.8139992 100.2990036  90.3389969  34.0769997 101.1289978  90.3759995
  35.6209984 100.5159988  91.0709991  35.4179993 100.2009964  88.9359970
  34.6189995  99.8740005  88.2369995  36.1990013  99.4110031  88.9410019
  36.0400009 101.4820023  88.3700027  35.2939987 102.3040009  88.3889999
  36.9140015 101.7860031  88.9850006  36.4949989 101.2259979  86.9290009
  37.2410011 100.4020004  86.9410019  35.6209984 100.8669968  86.3460007
  37.1040001 102.4120026  86.1809998  36.3709984 103.2460022  86.1539993
  38.0180016 102.7649994  86.7050018  37.4580002 102.0169983  84.7440033
  38.2820015 101.2720032  84.7740021  36.5760002 101.5090027  84.3000031
  37.8540001 103.1790009  83.8479996  38.0099983 102.8389969  82.8010025
  37.0629997 103.9580002  83.8539963  38.8009987 103.6269989  84.2190018
  42.6809998  98.7160034 106.7529984  42.9230003  99.6600037 107.5589981
  43.5419998  97.9589996 106.2180023  41.1879997  98.1839981 106.7399979
  38.9150009  98.8050003 107.2070007  38.6180000  98.2600021 106.2850037
  40.2709999  99.2740021 107.0370026  41.0719986  97.0609970 107.7919998
  41.5110016  97.4410019 108.7389984  41.6940002  96.1999969 107.4670029
  39.6730003  96.6070023 108.0780029  39.2820015  96.1060028 107.1660004
  39.7080002  95.6809998 109.1790009  38.7929993  97.8099976 108.3669968
  37.7389984  97.4589996 108.3919983  39.0830002  98.4120026 109.6360016
  38.9290009  97.7620010 110.3249969  37.9720001  99.9990005 107.3389969
  38.2299995 100.5520020 108.2669983  36.6030006  99.5569992 107.4260025
  36.0779991 100.3280029 107.1979980  38.1110001 100.9440002 106.1510010
  39.1730003 101.2389984 106.0130005  37.7949982 100.4199982 105.2229996
  37.3139992 102.1330032 106.3259964  37.8909988 102.8280029 106.6510010
  37.4620018  94.7770004 108.7389984  36.9329987  94.2850037 107.7040024
  36.8580017  95.3789978 109.6719971  38.9860001  94.4660034 109.0019989
  40.9179993  93.2710037 108.1849976  41.5110016  94.1989975 108.3300018
  39.5449982  93.6529999 107.9339981  39.1599998  93.7529984 110.3570023
  38.4949989  92.8629990 110.3610001  38.8120003  94.4229965 111.1719971
  40.5629997  93.3150024 110.6240005  41.2169991  94.2109985 110.6740036
  40.6250000  92.6559982 111.8880005  40.8419991  93.2870026 112.5780029
  41.0670013  92.4509964 109.4749985  42.1479988  92.2610016 109.6460037
  40.4059982  91.1790009 109.3870010  40.5740013  90.6859970 110.1930008
  41.5000000  92.5780029 106.9560013  40.9570007  91.6230011 106.7949982
  42.8979988  92.2969971 107.1549988  43.2480011  92.1630020 106.2710037
  41.3419991  93.4469986 105.7119980  40.2719994  93.7160034 105.5790024
  41.9129982  94.3919983 105.8310013  41.7859993  92.7490005 104.5319977
  41.5099983  93.2620010 103.7689972  86.8440018  61.9850006 104.2730026
  88.5159988  62.1419983 105.5279999  87.7829971  62.5709991 104.3649979
  87.4729996  63.6310005 104.4909973  88.5989990  62.4580002 103.0719986
  88.7429962  61.0779991 102.6930008  89.6029968  62.8839989 103.2829971
  89.7630005  60.9420013 101.6900024  90.7060013  61.4020004 102.0559998
  90.0380020  59.6139984 101.2710037  89.8320007  58.5690002 102.2310028
  89.7600021  58.9480019 103.2730026  90.7139969  57.8940010 102.1910019
  87.9990005  63.2190018 101.8789978  87.0000000  62.7750015 101.6790009
  87.9189987  64.6070023 102.2279968  86.4570007  65.4390030 102.2929993
  86.7659988  66.7089996 103.1029968  85.4020004  64.5569992 102.9899979
  86.0609970  65.7659988 100.8470001  88.8560028  63.0509987 100.6190033
  88.0820007  63.5110016  99.4960022  89.7770004  63.6510010 100.7819977
  88.6989975  64.2129974  98.5520020  89.8779984  64.5479965  98.5729980
  87.8590012  64.2409973  97.2860031  87.4629974  63.2210007  97.0910034
  88.5210037  64.5380020  96.4449997  89.3259964  61.6129990 100.3929977
  88.4309998  61.0410004 100.0650024  90.3560028  61.5040016  99.3519974
  91.3040009  61.5359993  99.6569977  88.6159973  57.4259987 100.3389969
  88.6800003  58.3880005  99.7880020  89.7620010  56.6339989 100.0139999
  89.9589996  56.7500000  99.0820007  88.6009979  57.7430000 101.8379974
  88.6650009  56.7739983 102.3789978  87.3870010  58.3849983 102.3020020
  86.1640015  57.7599983 101.8470001  85.3840027  58.5239983 102.0559998
  85.9160004  56.5489998 102.5609970  84.1890030  57.5410004 104.2129974
  83.3769989  56.1360016 102.2549973  84.6279984  55.0349998 104.1660004
  84.4540024  56.3120003 103.3339996  87.3330002  56.7509995  99.9209976
  87.2509995  55.8069992 100.5019989  87.3270035  56.3590012  98.5439987
  87.5139999  57.3129997  97.6309967  87.1949997  58.4850006  97.7289963
  87.9329987  56.6360016  96.3399963  87.3330002  57.0600014  95.5070038
  87.7119980  55.5489998  96.4140015  86.1809998  57.6370010 100.3280029
  86.4349976  58.6580009  99.9700012  84.9189987  57.2420006  99.7190018
  84.7990036  56.2669983  99.5500031  86.7450027  65.2760010  97.4619980
  86.2630005  65.1019974  98.4479980  85.7669983  65.1409988  96.4199982
  84.9869995  64.0690002  96.5159988  84.9449997  63.2970009  97.4619980
  83.9509964  64.0899963  95.3899994  83.5609970  65.1250000  95.2819977
  83.1110001  63.4280014  95.6920013  84.5490036  63.6010017  94.0569992
  84.9589996  62.5750008  94.1750031  85.3889999  64.2730026  93.7750015
  83.5100021  63.5870018  92.9270020  83.0729980  64.6039963  92.8310013
  82.6880035  62.8919983  93.2009964  84.0759964  63.1689987  91.5589981
  83.2429962  63.1769981  90.8249969  84.4619980  62.1279984  91.6139984
  85.1979980  64.0920029  91.0569992  86.1029968  63.9169998  91.6780014
  84.8899994  65.1490021  91.2030029  85.5749969  63.8930016  89.5810013
  85.8460007  62.8310013  89.4010010  86.4769974  64.5100021  89.3809967
  84.4810028  64.3219986  88.5889969  84.0459976  65.2870026  88.9260025
  83.6699982  63.5629997  88.5790024  85.0319977  64.5080032  87.1699982
  85.4769974  63.5489998  86.8259964  85.8489990  65.2600021  87.2050018
  83.9950027  64.9580002  86.1309967  83.4380035  65.8470001  86.4960022
  83.2730026  64.1289978  85.9749985  84.6770020  65.2860031  84.7979965
  85.3659973  64.4430008  84.5810013  85.3069992  66.1949997  84.9059982
  83.7460022  65.4319992  83.5899963  83.3000031  66.4489975  83.5869980
  82.9189987  64.6959991  83.6809998  84.4570007  65.1589966  82.2519989
  84.6890030  64.0729980  82.2129974  83.7480011  65.3769989  81.4250031
  85.7580032  65.9329987  82.0220032  86.1699982  65.7099991  81.0149994
  86.5179977  65.6360016  82.7770004  85.5879974  67.0279999  82.1029968
  87.2900009  66.7330017  97.4820023  88.2949982  66.7450027  97.9560013
  86.6110001  67.3119965  98.1429977  87.3420029  67.4909973  96.1360016
  87.7220001  68.5179977  96.3249969  86.3040009  67.5940018  95.7529984
  88.1989975  66.8550034  95.0309982  87.7799988  65.8550034  94.7890015
  89.2429962  66.7099991  95.3799973  88.1849976  67.6999969  93.7480011
  88.7789993  68.6269989  93.9029999  87.1340027  68.0039978  93.5530014
  88.6920013  66.9540024  92.5049973  89.7699966  66.7109985  92.6149979
  88.1370010  65.9950027  92.4209976  88.4639969  67.7610016  91.2190018
  89.0970001  68.6740036  91.2330017  87.4020004  68.0889969  91.1999969
  88.7360001  66.9649963  89.9349976  89.8160019  66.7160034  89.8669968
  88.1699982  66.0100021  89.9810028  88.2929993  67.7279968  88.6790009
  87.2160034  67.9769974  88.7829971  88.8570023  68.6829987  88.6080017
  88.4810028  66.9329987  87.3809967  87.9810028  65.9459991  87.4830017
  89.5640030  66.7450027  87.2149963  87.9039993  67.6559982  86.1579971
  86.8190002  67.8320007  86.3229980  88.3960037  68.6470032  86.0630035
  88.0910034  66.8809967  84.8580017  87.7170029  67.4670029  83.9909973
  89.1669998  66.6510010  84.6999969  87.5339966  65.9199982  84.8970032
  90.0820007  61.3139992  98.0469971  88.9270020  61.2200012  97.6380005
  91.2799988  61.2050018  97.1080017  92.2020035  61.4860001  97.6610031
  91.3710022  60.1500015  96.7740021  91.1330032  62.1349983  95.8789978
  90.9840012  63.1720009  96.2490005  90.0240021  61.6769981  95.0889969
  89.3489990  62.6110001  94.4169998  89.6159973  63.8050003  94.4079971
  87.9319992  62.0919991  94.1289978  87.3519974  62.9189987  93.6660004
  87.4639969  61.8390007  95.1050034  87.9260025  60.8580017  93.2129974
  86.9089966  60.4099998  93.2350006  88.6309967  60.0919991  93.6019974
  88.2740021  61.1619987  91.7509995  89.2939987  61.5960007  91.6839981
  87.5520020  61.9080009  91.3539963  88.1979980  59.8940010  90.8899994
  87.2200012  59.4039993  91.0879974  88.9940033  59.1850014  91.2030029
  88.2890015  60.1240005  89.3750000  89.2890015  60.5260010  89.1060028
  87.5189972  60.8699989  89.0839996  88.0270004  58.8250008  88.6039963
  87.0790024  58.3860016  88.9830017  88.8330002  58.0919991  88.8229980
  87.8970032  58.9760017  87.0849991  88.9140015  59.1259995  86.6660004
  87.2779999  59.8610001  86.8249969  87.2689972  57.7260017  86.4520035
  86.1600037  57.7779999  86.4879990  87.5859985  56.8660011  87.0800018
  87.7639999  57.4099998  85.0380020  87.5859985  56.3310013  84.8440018
  88.8610001  57.5849991  85.0390015  87.1569977  58.2220001  83.8970032
  86.0640030  58.0289993  83.8489990  87.3020020  59.3019981  84.1159973
  87.7890015  57.9189987  82.5400009  87.6539993  56.8489990  82.2740021
  87.3089981  58.5410004  81.7539978  88.8759995  58.1479988  82.5660019
  92.4479980  62.0909996  95.0490036  92.6060028  61.0519981  94.6910019
  93.2929993  62.3450012  95.7249985  92.4899979  63.0460014  93.8460007
  92.3160019  64.0859985  94.1969986  91.6620026  62.7719994  93.1579971
  93.8000031  62.9959984  93.0559998  93.9400024  61.9630013  92.6729965
  94.6490021  63.2299995  93.7330017  93.8300018  63.9589996  91.8590012
  94.8280029  63.8829994  91.3769989  93.7050018  65.0029984  92.2200012
  92.7519989  63.6559982  90.8059998  92.7979965  62.5750008  90.5540009
  91.7470016  63.8590012  91.2340012  92.9169998  64.4700012  89.5179977
  93.9189987  64.2509995  89.0920029  92.8799973  65.5550003  89.7539978
  91.8499985  64.1409988  88.4639969  90.8580017  64.5000000  88.8119965
  91.7919998  63.0369987  88.3519974  92.1729965  64.7369995  87.0879974
  92.1890030  65.8470001  87.1480026  93.1920013  64.4010010  86.7990036
  91.1940002  64.3030014  85.9919968  91.0210037  63.2080002  86.0640030
  90.2160034  64.8059998  86.1490021  91.7040024  64.6179962  84.5859985
  92.6709976  64.0979996  84.4160004  91.8949966  65.7119980  84.5609970
  90.7450027  64.2809982  83.4509964  90.5000000  63.1969986  83.4639969
  89.8010025  64.8560028  83.5589981  91.1989975  64.5309982  82.4690018
  89.4359970  56.8139992  96.0630035  89.7760010  55.8950005  95.5400009
  90.1859970  56.9630013  97.2730026  91.1429977  56.9710007  97.1930008
  89.6969986  57.9889984  95.1100006  89.4550018  58.9560013  95.6009979
  89.0100021  57.8680000  94.2450027  91.1269989  58.0009995  94.5609970
  91.4369965  56.9459991  94.4039993  91.8079987  58.4570007  95.3109970
  91.2720032  58.7159996  93.2129974  91.0289993  59.7939987  93.3219986
  90.5270004  58.2830009  92.5120010  92.6809998  58.5390015  92.6269989
  93.0319977  57.5120010  92.8639984  93.3669968  59.2529984  93.1299973
  92.7770004  58.7050018  91.1029968  92.3639984  59.6899986  90.7979965
  93.8519974  58.6850014  90.8239975  92.0790024  57.5779991  90.3280029
  90.9929962  57.5680008  90.5599976  92.5090027  56.6049995  90.6490021
  92.2419968  57.7019997  88.8119965  93.3219986  57.7439995  88.5589981
  91.7760010  58.6529999  88.4759979  91.5830002  56.5439987  88.0630035
  91.9530029  55.5699997  88.4499969  90.4909973  56.6010017  88.2570038
  91.7929993  56.5890007  86.5510025  91.6630020  57.6380005  86.2099991
  92.8239975  56.2639999  86.2949982  90.7829971  55.7270012  85.7990036
  90.9810028  54.6590004  86.0289993  89.7720032  55.9659996  86.1949997
  90.7870026  55.9339981  84.2900009  89.9609985  55.3540001  83.8270035
  90.6399994  57.0110016  84.0619965  91.7590027  55.6020012  83.8669968
  84.0709991  58.1380005  99.1890030  84.0660019  59.3180008  99.5469971
  83.1600037  57.6360016  98.0759964  82.1019974  57.6749992  98.4110031
  83.4169998  56.5779991  97.8560028  83.3960037  58.4920006  96.8119965
  84.4250031  58.9090004  96.8180008  82.4530029  59.5600014  96.7839966
  82.6090012  60.2249985  96.1100006  83.2669983  57.6599998  95.5179977
  82.2200012  57.3089981  95.3899994  83.9110031  56.7630005  95.6360016
  83.7369995  58.4039993  94.2549973  84.6940002  58.9179993  94.4840012
  82.9950027  59.1790009  93.9680023  83.9830017  57.4599991  93.0690002
  83.0390015  56.9589996  92.7639999  84.6890030  56.6710014  93.4069977
  84.6159973  58.1570015  91.8580017  85.1330032  57.3889999  91.2440033
  85.3880005  58.8759995  92.2040024  83.6149979  58.8750000  90.9410019
  82.8779984  58.1279984  90.5770035  83.0650024  59.6609993  91.5009995
  84.3219986  59.5009995  89.7330017  85.0599976  58.7610016  89.3580017
  84.8909988  60.4000015  90.0540009  83.4100037  59.8520012  88.5540009
  82.8659973  58.9350014  88.2429962  82.6589966  60.6139984  88.8539963
  84.2269974  60.3639984  87.3619995  84.6139984  61.3810005  87.5889969
  85.1029968  59.6940002  87.2279968  83.4509964  60.3769989  86.0449982
  83.1200027  59.3409996  85.8170013  82.5459976  61.0110016  86.1579971
  84.2799988  60.8889999  84.8679962  84.6009979  61.9290009  85.0920029
  85.1930008  60.2599983  84.7919998  83.5630035  60.8639984  83.5240021
  83.4130020  59.8160019  83.1880035  82.5690002  61.3520012  83.6070023
  84.1600037  61.3940010  82.7509995  88.5309982  64.3799973 106.5930023
  87.7060013  65.2340012 107.0230026  89.7360001  64.6009979 106.2730026
  88.1200027  62.8510017 106.7149963  86.3430023  61.3250008 107.2829971
  86.6299973  60.7159996 106.3990021  86.6979980  62.7019997 107.0100021
  88.9520035  62.2480011 107.8570023  88.8199997  62.8849983 108.7570038
  90.0240021  62.2980003 107.5690002  88.5950012  60.8419991 108.2030029
  88.8089981  60.2200012 107.3079987  89.3870010  60.4129982 109.3270035
  87.1070023  60.7449989 108.4810028  86.8550034  59.6650009 108.5550003
  86.7369995  61.3680000 109.7180023  87.2340012  60.9589996 110.4300003
  84.8249969  61.2039986 107.4290009  84.5019989  61.8180008 108.2959976
  84.4400024  59.8349991 107.6630020  83.5350037  59.7760010 107.3489990
  84.1190033  61.7109985 106.1760025  84.4530029  62.7430000 105.9359970
  84.3970032  61.0690002 105.3130035  82.6849976  61.7099991 106.3330002
  82.4280014  62.5579987 106.7020035  89.5029984  58.0900002 108.5230026
  89.9680023  57.4930000 107.5139999  88.5400009  57.7019997 109.2440033
  90.3000031  59.3499985 109.0609970  92.1809998  60.8330002 108.6910019
  91.5149994  61.6920013 108.9199982  91.3649979  59.7589989 108.1500015
  90.8880005  59.0149994 110.4469986  91.4929962  58.0890007 110.3420029
  90.0599976  58.7830009 111.1500015  91.7470016  60.0970001 111.0090027
  91.1289978  61.0079994 111.1589966  92.2519989  59.6899986 112.2799988
  91.6389999  59.9399986 112.9749985  92.8489990  60.4589996 110.0230026
  93.3649979  61.3600006 110.4209976  93.8349991  59.4290009 109.8700027
  94.1460037  59.1759987 110.7429962  93.1849976  61.3320007 107.6490021
  93.8870010  60.5019989 107.4209976  93.9369965  62.4500008 108.1630020
  94.4430008  62.7820015 107.4179993  92.4980011  61.7570000 106.3570023
  91.8229980  60.9529991 105.9940033  91.8830032  62.6650009 106.5370026
  93.4420013  62.0320015 105.3270035  93.4909973  61.1759987 104.8960037
 126.7559967  57.7770004 104.3320007 127.2750015  56.2190018 105.6309967
 127.5530014  57.0139999 104.4639969 128.5130005  57.5589981 104.5879974
 127.6419983  56.1510010 103.2050018 126.3769989  55.5089989 102.9850006
 128.4010010  55.3639984 103.4039993 126.4820023  54.5509987 101.9260025
 127.4020004  53.9459991 102.0780029 125.4150009  53.6199989 101.8180008
 124.2689972  53.8339996 102.6579971 124.5360031  54.3079987 103.6259995
 123.8649979  52.8330002 102.9219971 128.0559998  56.9389992 101.9469986
 127.3740005  57.8139992 101.8870010 129.4239960  57.3250008 102.1340027
 129.9989929  58.8870010 101.9940033 131.3079987  58.9090004 102.7939987
 128.9640045  59.8499985 102.5889969 130.2640076  59.1529999 100.5080032
 127.8970032  56.1269989 100.6520004 127.9680023  57.0299988  99.5339966
 128.7319946  55.3940010 100.6600037 128.6739960  56.6409988  98.4710007
 129.2790070  55.5789986  98.3789978 128.2550049  57.4379997  97.2509995
 127.1589966  57.6139984  97.2929993 128.4810028  56.8310013  96.3479996
 126.6159973  55.2859993 100.6110001 125.7480011  55.9749985 100.5329971
 126.5749969  54.3540001  99.4869995 126.9260025  53.4379997  99.6610031
 122.7570038  54.0239983 100.6019974 123.6460037  54.1119995  99.9420013
 122.4089966  52.6360016 100.6819992 121.5979996  52.5040016 101.1780014
 123.1510010  54.6080017 101.9649963 122.2639999  54.5270004 102.6299973
 123.4909973  56.0130005 101.8870010 122.4810028  56.8330002 101.2559967
 122.9950027  57.8009987 101.0719986 121.3809967  57.0050011 102.1460037
 121.8140030  59.5200005 102.6190033 119.7900009  58.8199997 101.2419968
 119.8700027  58.3129997 103.7129974 120.6940002  58.4910011 102.4329987
 121.6269989  54.8619995 100.0309982 120.8399963  54.8950005 100.8150024
 120.9410019  54.3699989  98.8769989 121.6230011  54.0670013  97.7789993
 122.8180008  54.2420006  97.6159973 120.6070023  53.9780006  96.6409988
 120.8290024  54.7910004  95.9169998 119.5830002  54.1409988  97.0419998
 122.1439972  56.2739983  99.8710022 123.1090012  56.1819992  99.3280029
 121.2959976  57.1329994  99.0609970 120.3330002  56.8849983  98.9950027
 129.0630035  58.7379990  97.2099991 128.9709930  59.2379990  98.1979980
 128.5639954  59.6069984  96.1839981 127.3270035  60.0530014  96.3479996
 126.7050018  60.0519981  97.4020004 126.9160004  60.8670006  95.1159973
 127.7450027  61.5579987  94.8499985 126.0289993  61.4739990  95.3970032
 126.5699997  59.9580002  93.9189987 125.7890015  59.2260017  94.2160034
 127.4729996  59.3849983  93.6190033 126.0520020  60.7589989  92.7170029
 126.8310013  61.4879990  92.4079971 125.1559982  61.3339996  93.0380020
 125.6620026  59.9129982  91.4909973 125.3209991  60.6069984  90.6940002
 124.8020020  59.2589989  91.7509995 126.8020020  59.0429993  90.9410019
 126.9639969  58.2039986  91.6510010 127.7389984  59.6380005  90.9059982
 126.5289993  58.4659996  89.5429993 125.4680023  58.1389999  89.4970016
 127.1679993  57.5690002  89.3960037 126.8130035  59.4500008  88.3949966
 127.9079971  59.6329994  88.3539963 126.3119965  60.4169998  88.6149979
 126.3249969  58.9560013  87.0240021 125.2160034  58.9020004  87.0449982
 126.7139969  57.9319992  86.8379974 126.7529984  59.8689995  85.8649979
 127.8509979  59.7960014  85.7180023 126.5220032  60.9199982  86.1429977
 126.0350037  59.5779991  84.5400009 124.9420013  59.6360016  84.7300034
 126.2689972  58.5480003  84.1949997 126.3939972  60.5760002  83.4290009
 127.4420013  60.3950005  83.1070023 126.3369980  61.5989990  83.8580017
 125.4649963  60.5540009  82.2099991 125.3529968  59.5060005  81.8570023
 124.4629974  60.9029999  82.5390015 125.9339981  61.4420013  81.0619965
 126.0260010  62.4949989  81.4020004 125.2190018  61.3989983  80.2129974
 126.9280014  61.0979996  80.7060013 130.5740051  58.4729996  96.9520035
 130.8549957  57.4640007  97.3219986 131.1320038  59.2099991  97.5680008
 131.0760040  58.6440010  95.5000000 132.1790009  58.5060005  95.4850006
 130.8809967  59.6949997  95.1959991 130.4589996  57.7159996  94.4380035
 129.3529968  57.7039986  94.5390015 130.8309937  56.6780014  94.5749969
 130.7839966  58.2190018  93.0230026 131.8860016  58.3040009  92.9110031
 130.3580017  59.2400017  92.9179993 130.2409973  57.3540001  91.8759995
 130.7559967  56.3689995  91.8919983 129.1519928  57.1769981  92.0110016
 130.4810028  58.0379982  90.5220032 131.5200043  58.4329987  90.5339966
 129.7949982  58.9059982  90.4209976 130.3520050  57.1380005  89.2850037
 131.0220032  56.2639999  89.4329987 129.3139954  56.7560005  89.1760025
 130.7819977  57.8820000  88.0090027 129.9210052  58.4370003  87.5790024
 131.5379944  58.6370010  88.3150024 131.4490051  57.0000000  86.9420013
 130.6809998  56.3969994  86.4120026 132.1369934  56.2919998  87.4499969
 132.2689972  57.8240013  85.9369965 131.5760040  58.4529991  85.3389969
 132.9309998  58.5110016  86.5070038 133.1369934  56.9920006  84.9929962
 133.7839966  57.6529999  84.3769989 133.7859955  56.2939987  85.5640030
 132.4949951  56.3989983  84.3059998 126.1090012  54.6539993  98.2630005
 125.6060028  55.7430000  97.9970016 126.2799988  53.5600014  97.2210007
 127.0960007  52.8800011  97.5490036 125.3389969  52.9749985  97.1340027
 126.6640015  54.1829987  95.8669968 127.4189987  54.9790001  96.0449982
 125.4609985  54.6580009  95.2450027 125.5490036  55.8419991  94.6419983
 126.5459976  56.5480003  94.5989990 124.1299973  56.3720016  94.4059982
 124.2009964  57.4519997  94.1529999 123.5660019  56.2690010  95.3570023
 123.4140015  55.6129990  93.2750015 122.3369980  55.8829994  93.3150024
 123.4919968  54.5149994  93.4270020 123.9400024  55.9799995  91.8840027
 124.9639969  55.5740013  91.7379990 124.0039978  57.0859985  91.8140030
 123.0139999  55.4930000  90.7590027 121.9840012  55.8370018  90.9909973
 122.9970016  54.3820000  90.7210007 123.4049988  56.0589981  89.3889999
 124.3059998  55.5320015  89.0080032 123.6689987  57.1310005  89.5189972
 122.2809982  55.9920006  88.3509979 121.4240036  56.5960007  88.7200012
 121.9400024  54.9399986  88.2480011 122.7030029  56.5239983  86.9729996
 123.5179977  55.8779984  86.5810013 123.1060028  57.5540009  87.0770035
 121.5469971  56.5309982  85.9629974 120.7679977  57.2560005  86.2799988
 121.0869980  55.5200005  85.9759979 121.9779968  56.8230019  84.5169983
 121.1849976  56.4440002  83.8379974 122.9069977  56.2579994  84.2900009
 122.1930008  58.3059998  84.2089996 121.2740021  58.8680000  84.4800034
 123.0139999  58.6910019  84.8509979 122.5299988  58.5810013  82.7450027
 121.7229996  58.2039986  82.0810013 122.6429977  59.6739998  82.5820007
 123.4840012  58.0830002  82.4700012 127.3239975  53.1250000  94.9560013
 126.5739975  52.3450012  94.7050018 128.1499939  52.6370010  95.5159988
 127.9089966  53.7039986  93.6610031 128.6790009  54.4659996  93.9079971
 127.0910034  54.2190018  93.1119995 128.5279999  52.6290016  92.7610016
 127.7630005  51.8470001  92.5670013 129.3679962  52.1419983  93.3010025
 129.0189972  53.1710014  91.4089966 129.4010010  52.3120003  90.8170013
 129.8630066  53.8769989  91.5579987 127.8919983  53.8600006  90.6289978
 126.9430008  53.3610001  90.9219971 127.8059998  54.9249992  90.9309998
 127.9990005  53.7389984  89.1039963 128.2729950  52.6930008  88.8479996
 128.7969971  54.4059982  88.7129974 126.6529999  54.0600014  88.4400024
 126.3899994  55.1220016  88.6299973 125.8750000  53.4269981  88.9189987
 126.6080017  53.7879982  86.9349976 127.1029968  52.8180008  86.7139969
 125.5410004  53.6860008  86.6409988 127.2409973  54.9059982  86.0940018
 126.7249985  55.8610001  86.3339996 128.3079987  55.0250015  86.3799973
 127.1480026  54.6699982  84.5810013 127.7030029  55.4879990  84.0729980
 127.6689987  53.7210007  84.3339996 125.7279968  54.6170006  84.0350037
 125.1579971  53.7729988  84.4800034 125.1900024  55.5610008  84.2669983
 125.7409973  54.4720001  82.9339981 120.6529999  52.6150017  95.9240036
 119.7649994  52.5709991  95.2580032 120.5339966  51.5530014  96.8639984
 121.3550034  51.2560005  97.2649994 121.8949966  52.4230003  95.0289993
 122.8199997  52.4220009  95.6449966 121.9420013  53.3030014  94.3539963
 121.8600006  51.1619987  94.1460037 120.8889999  51.1279984  93.6070023
 121.9229965  50.2540016  94.7829971 122.9909973  51.1370010  93.1060028
 123.9739990  51.1329994  93.6250000 122.9359970  52.0690002  92.5029984
 122.8980026  49.9339981  92.1520004 121.8990021  49.9609985  91.6669998
 122.9619980  48.9860001  92.7269974 123.9759979  49.9420013  91.0559998
 124.3529968  50.9790001  90.9280014 124.8359985  49.3149986  91.3759995
 123.4660034  49.4620018  89.6859970 122.6220016  50.1110001  89.3679962
 123.0780029  48.4249992  89.7799988 124.5550003  49.5019989  88.6029968
 125.4029999  48.8600006  88.9250031 124.9329987  50.5429993  88.5179977
 124.0739975  49.0289993  87.2220001 123.7259979  47.9780006  87.3219986
 123.2070007  49.6409988  86.8949966 125.1679993  49.0820007  86.1380005
 126.1240005  48.7080002  86.5640030 124.8750000  48.4059982  85.3059998
 125.3720016  50.4819984  85.5390015 124.4329987  50.7680016  85.0199966
 125.5289993  51.2060013  86.3669968 126.5250015  50.6069984  84.5449982
 126.5569992  51.6389999  84.1330032 127.4960022  50.4020004  85.0429993
 126.3909988  49.8989983  83.6999969 121.7750015  58.2130013  98.4189987
 122.9380035  58.5929985  98.5609970 120.8119965  58.9220009  97.4769974
 120.4929962  59.8880005  97.9219971 119.9120026  58.2830009  97.3470001
 121.4840012  59.1290016  96.1060028 122.1610031  58.2760010  95.8850021
 122.2269974  60.3440018  96.1169968 122.7669983  60.5000000  95.3379974
 120.4390030  59.1879997  94.9749985 119.8140030  60.1010017  95.0839996
 119.7699966  58.3079987  95.0830002 121.0559998  59.1349983  93.5690002
 121.7300034  58.2550011  93.5070038 121.6699982  60.0439987  93.3909988
 119.9940033  59.0139999  92.4710007 119.3710022  59.9339981  92.4530029
 119.3270035  58.1599998  92.7180023 120.5960007  58.7700005  91.0810013
 119.7689972  58.5410004  90.3740005 121.2590027  57.8790016  91.1200027
 121.3990021  59.9570007  90.5309982 120.7659988  60.8680000  90.5830002
 122.3010025  60.1279984  91.1569977 121.8280029  59.7350006  89.0770035
 120.9390030  59.4000015  88.5019989 122.5790024  58.9179993  89.0260010
 122.3929977  60.9840012  88.3919983 121.7030029  61.8349991  88.5780029
 123.3840027  61.2449989  88.8209991 122.5110016  60.7750015  86.8789978
 123.3089981  60.0330009  86.6630020 121.5550003  60.3419991  86.5159988
 122.7699966  62.0499992  86.0729980 122.0299988  62.8279991  86.3600006
 123.7850037  62.4410019  86.2959976 122.6370010  61.7789993  84.5729980
 123.3860016  61.0029984  84.3079987 121.6370010  61.3330002  84.3880005
 122.8160019  62.9910011  83.6689987 122.6839981  62.7029991  82.6039963
 122.0690002  63.7719994  83.9229965 123.8349991  63.4169998  83.7969971
 129.1239929  57.1170006 107.0110016 129.4969940  58.1559982 107.6230011
 129.8450012  56.1110001 106.7509995 127.5609970  56.9010010 106.8570023
 125.4250031  58.0050011 107.0260010 125.1050034  57.4529991 106.1159973
 126.8610001  58.1749992 106.9619980 127.0970001  55.9169998 107.9520035
 127.4960022  56.2789993 108.9240036 127.5579987  54.9249992 107.7610016
 125.6090012  55.7799988 108.0770035 125.2259979  55.3380013 107.1320038
 125.3119965  54.9099998 109.1819992 124.9940033  57.1559982 108.2269974
 123.8899994  57.0400009 108.1709976 125.3069992  57.7719994 109.4830017
 124.9140015  57.2540016 110.1890030 124.7340012  59.3660011 106.9769974
 125.0690002  59.9669991 107.8499985 123.3020020  59.2159996 107.0370026
 122.9580002  60.0390015 106.6800003 125.0979996  60.1069984 105.6959991
 126.2030029  60.1889992 105.6159973 124.7389984  59.5309982 104.8160019
 124.5339966  61.4329987 105.6770020 124.8239975  61.8580017 104.8669968
 122.9359970  54.6189995 108.6119995 122.3639984  54.3079987 107.5309982
 122.4530029  55.3380013 109.5329971 124.3119965  53.9230003 108.9430008
 125.9029999  52.2709999 108.1890030 126.7099991  53.0110016 108.3809967
 124.6930008  53.0029984 107.8820038 124.2170029  53.1739998 110.2860031
 123.3450012  52.4879990 110.2330017 124.0100021  53.9029999 111.0989990
 125.4420013  52.3829994 110.6090012 126.3030014  53.0769997 110.7129974
 125.2620010  51.7169991 111.8580017 125.5550003  52.2809982 112.5770035
 125.7620010  51.4300003 109.4649963 126.7450027  50.9599991 109.6849976
 124.7959976  50.3790016 109.3140030 124.7580032  49.8740005 110.1299973
 126.3460007  51.4580002 106.9759979 125.5859985  50.6730003 106.7760010
 127.6169968  50.8300018 107.2360001 127.9420013  50.5649986 106.3730011
 126.4749985  52.3380013 105.7369995 125.5130005  52.8650017 105.5559998
 127.2559967  53.1129990 105.8919983 126.7900009  51.5489998 104.5719986
 126.4469986  52.0130005 103.8050003 125.5419998  89.7360001 104.7610016
 125.6579971  91.5130005 105.8639984 125.0859985  90.7490005 104.7799988
 123.9980011  90.6090012 104.9520035 125.2779999  91.4160004 103.4130020
 126.6809998  91.5339966 103.1210022 124.8339996  92.4309998 103.4909973
 126.9000015  92.4150009 102.0090027 126.3960037  93.3799973 102.2289963
 128.2570038  92.7139969 101.7089996 129.2570038  92.1669998 102.5820007
 128.8739929  91.9820023 103.6090012 130.0520020  92.9339981 102.6999969
 124.6190033  90.6839981 102.2269974 125.1330032  89.7060013 102.1110001
 123.2170029  90.5370026 102.5049973 122.4830017  89.0240021 102.6210022
 121.1770020  89.2580032 103.3949966 123.4179993  88.0780029 103.3899994
 122.2070007  88.5169983 101.1979980 124.8349991  91.4879990 100.9359970
 124.3259964  90.7289963  99.8219986 124.2880020  92.4430008 101.0839996
 123.7360001  91.4229965  98.8430023 123.6080017  92.6429977  98.8310013
 123.6360016  90.5800018  97.5839996 124.4469986  89.8209991  97.5839996
 123.7789993  91.2519989  96.7109985 126.3130035  91.8479996 100.7249985
 126.8590012  90.9010010 100.5289993 126.5550003  92.7590027  99.6019974
 126.6119995  93.7289963  99.8259964 130.4069977  91.1110001 100.5640030
 129.5209961  91.3389969  99.9339981 131.3090057  92.2210007 100.4629974
 132.1450043  92.0350037 100.8960037 129.9100037  90.9079971 102.0009995
 130.7960052  90.6959991 102.6370010 129.0310059  89.7630005 102.1250000
 129.5679932  88.5260010 101.5889969 128.7220001  87.8069992 101.5419998
 130.6329956  88.0159988 102.3850021 129.2109985  87.2559967 104.4199982
 130.0729980  85.5309982 102.7779999 131.6860046  86.7210007 104.2949982
 130.3730011  86.8379974 103.5210037 131.0379944  89.8219986 100.0749969
 131.8229980  89.5589981 100.8170013 131.7440033  89.9079971  98.8330002
 131.0829926  90.3499985  97.7639999 129.8679962  90.3529968  97.6419983
 132.0619965  90.3539963  96.5920029 131.6340027  89.7269974  95.7799988
 133.0350037  89.9169998  96.9029999 129.9810028  88.7379990 100.1340027
 129.0859985  89.1679993  99.6350021 130.3529968  87.5159988  99.4270020
 131.3240051  87.2919998  99.3980026 122.2369995  89.9540024  97.5439987
 122.0859985  89.3929977  98.4909973 122.0989990  89.0680008  96.4250031
 122.8789978  88.0049973  96.3949966 123.5309982  87.5599976  97.3290024
 122.7809982  87.3410034  95.0149994 121.7269974  87.3880005  94.6699982
 123.0640030  86.2730026  95.1350021 123.7129974  88.0220032  93.9869995
 124.7649994  87.9449997  94.3359985 123.4580002  89.1009979  93.9110031
 123.6050034  87.3929977  92.5899963 122.5619965  87.5090027  92.2249985
 123.8109970  86.3050003  92.6719971 124.5630035  87.9889984  91.5390015
 124.4189987  87.4160004  90.5979996 125.6159973  87.8369980  91.8590012
 124.3440018  89.4860001  91.2480011 124.8150024  90.0709991  92.0660019
 123.2570038  89.7149963  91.2620010 124.9189987  89.9550018  89.8980026
 125.9520035  89.5619965  89.7850037 124.9749985  91.0640030  89.9000015
 124.0559998  89.5289993  88.6969986 123.0650024  90.0250015  88.7779999
 123.8889999  88.4319992  88.7490005 124.6600037  89.8460007  87.3190002
 125.6699982  89.3870010  87.2620010 124.7730026  90.9449997  87.2030029
 123.7969971  89.2900009  86.1740036 122.8369980  89.8470001  86.1279984
 123.5599976  88.2320023  86.4160004 124.4710007  89.3109970  84.7929993
 125.4869995  88.8730011  84.8919983 124.5830002  90.3590012  84.4430008
 123.7020035  88.4899979  83.7419968 122.7249985  88.9680023  83.5159988
 123.4960022  87.4919968  84.1849976 124.4820023  88.2539978  82.4410019
 125.5490036  88.0780029  82.6979980 124.1139984  87.3130035  81.9769974
 124.3789978  89.3529968  81.3889999 123.3450012  89.4209976  80.9889984
 124.6630020  90.3379974  81.8190002 125.0579987  89.1370010  80.5370026
 121.1090012  91.0179977  97.4499969 121.3860016  91.9430008  97.9990005
 120.2340012  90.5879974  97.9830017 120.6110001  91.3990021  96.0410004
 119.8040009  92.1549988  96.1470032 120.1480026  90.4990005  95.5830002
 121.6630020  91.9449997  95.0609970 122.4599991  91.1829987  94.9189987
 122.1340027  92.8679962  95.4619980 121.0230026  92.2180023  93.6959991
 120.3280029  93.0800018  93.7900009 120.4229965  91.3229980  93.4240036
 121.9869995  92.4909973  92.5350037 122.5059967  93.4599991  92.6949997
 122.7580032  91.6920013  92.4919968 121.2129974  92.5210037  91.2089996
 120.3809967  93.2509995  91.3040009 120.7600021  91.5210037  91.0400009
 122.0479965  92.8960037  89.9800034 122.4970016  93.8990021  90.1399994
 122.8789978  92.1699982  89.8509979 121.1849976  92.9199982  88.7119980
 120.7900009  91.8980026  88.5299988 120.3190002  93.5930023  88.8939972
 121.9140015  93.4029999  87.4540024 122.7549973  92.7139969  87.2279968
 122.3470001  94.4059982  87.6559982 120.9929962  93.4970016  86.2300034
 120.6100006  92.4800034  86.0000000 120.1200027  94.1330032  86.4889984
 121.6760025  94.0630035  84.9869995 120.9589996  94.1309967  84.1409988
 122.0849991  95.0759964  85.1900024 122.5149994  93.4029999  84.6800003
 126.7170029  92.3789978  98.3199997 126.6930008  91.1969986  97.9830017
 126.9120026  93.5110016  97.3140030 126.4540024  94.4339981  97.7279968
 127.9990005  93.6869965  97.1669998 126.2310028  93.1890030  95.9629974
 125.1890030  92.8669968  96.1750031 127.0070038  92.1809998  95.2969971
 126.3040009  91.2799988  94.6039963 125.0859985  91.2549973  94.5139999
 127.1689987  90.0250015  94.4169998 126.5410004  89.2320023  93.9599991
 127.4840012  89.6890030  95.4280014 128.4060059  90.2959976  93.5469971
 129.1549988  89.5029984  93.7570038 128.8600006  91.2720032  93.8199997
 128.1260071  90.2870026  92.0419998 127.4130020  91.0960007  91.7740021
 127.6549988  89.3190002  91.7689972 129.4270020  90.4509964  91.2429962
 130.1820068  89.7590027  91.6740036 129.8099976  91.4869995  91.3590012
 129.2890015  90.1159973  89.7549973 128.6620026  90.8789978  89.2470016
 128.7680054  89.1389999  89.6620026 130.6519928  90.0149994  89.0559998
 131.3099976  89.3359985  89.6389999 131.1199951  91.0220032  89.0410004
 130.5570068  89.4860001  87.6210022 129.8789978  90.1500015  87.0439987
 130.0970001  88.4749985  87.6220016 131.9129944  89.4280014  86.9039993
 132.5059967  88.5859985  87.3199997 132.4669952  90.3690033  87.1090012
 131.8040009  89.2740021  85.3789978 132.8249969  89.1409988  84.9629974
 131.3880005  90.2129974  84.9570007 130.9210052  88.1070023  84.9179993
 131.2660065  87.1780014  85.4199982 129.8739929  88.2939987  85.2399979
 130.9429932  87.8889999  83.4100037 131.9689941  87.6200027  83.0800018
 130.2469940  87.0719986  83.1230011 130.6459961  88.8180008  82.8779984
 126.1699982  94.4729996  95.0960007 127.2040024  94.8519974  94.9459991
 125.6149979  95.2440033  95.6729965 125.4940033  94.3310013  93.7210007
 124.4660034  93.9309998  93.8539963 126.0670013  93.6039963  93.1070023
 125.4309998  95.6729965  92.9800034 126.4670029  96.0500031  92.8420029
 124.8939972  96.4059982  93.6190033 124.7440033  95.6419983  91.6039963
 124.7959976  96.6719971  91.1910019 123.6709976  95.3789978  91.7200012
 125.3840027  94.6910019  90.5800018 126.4889984  94.7220001  90.6890030
 125.0479965  93.6529999  90.7900009 125.0339966  95.0739975  89.1330032
 125.5680008  96.0169983  88.8860016 123.9430008  95.2740021  89.0660019
 125.3860016  94.0039978  88.0899963 124.7269974  93.1230011  88.2460022
 126.4359970  93.6729965  88.2419968 125.2310028  94.5039978  86.6429977
 124.2259979  94.9619980  86.5210037 125.9919968  95.2929993  86.4619980
 125.3919983  93.3980026  85.5899963 126.3410034  92.8560028  85.7890015
 124.5589981  92.6719971  85.7040024 125.4150009  93.9229965  84.1470032
 126.2750015  94.6179962  84.0429993 124.4850006  94.5019989  83.9619980
 125.5350037  92.8270035  83.0879974 125.5920029  93.2620010  82.0680008
 126.4499969  92.2200012  83.2570038 124.6559982  92.1490021  83.1269989
 132.2640076  91.7929993  96.0879974 133.0610046  91.7870026  95.3140030
 132.6840057  92.6250000  97.1640015 133.5910034  92.5039978  97.4550018
 130.9889984  92.3570023  95.4290009 130.1360016  92.3379974  96.1409988
 130.7510071  91.6679993  94.5899963 131.1139984  93.7740021  94.8529968
 132.1080017  93.8639984  94.3649979 131.0690002  94.5139999  95.6800003
 130.0440063  94.0839996  93.7990036 129.0299988  93.9049988  94.2149963
 130.1869965  93.3619995  92.9660034 130.1230011  95.5179977  93.2500000
 131.1869965  95.7870026  93.0830002 129.7180023  96.2139969  94.0159988
 129.3639984  95.7170029  91.9270020 128.3430023  95.2870026  92.0189972
 129.2570038  96.8050003  91.7289963 130.0890045  95.0739975  90.7379990
 130.2169952  93.9899979  90.9499969 131.1060028  95.5130005  90.6529999
 129.3849945  95.2009964  89.3809967 129.8699951  96.0149994  88.8010025
 128.3170013  95.4710007  89.5260010 129.4519958  93.8809967  88.6009979
 130.4730072  93.4589996  88.7170029 128.7400055  93.1600037  89.0569992
 129.1660004  93.9970016  87.0989990 128.1490021  94.4179993  86.9449997
 129.9069977  94.6869965  86.6429977 129.2709961  92.6419983  86.3899994
 130.2700043  92.2210007  86.6299973 128.5090027  91.9530029  86.8130035
 129.1269989  92.6880035  84.8759995 129.2299957  91.6719971  84.4380035
 128.1430054  93.1090012  84.5770035 129.9250031  93.3300018  84.4459991
 129.4629974  86.8440018  98.6699982 128.2510071  87.0120010  98.8089981
 130.0279999  85.8889999  97.6200027 129.8170013  84.8430023  97.9270020
 131.1289978  86.0289993  97.5719986 129.4239960  86.1790009  96.2239990
 129.3739929  87.2770004  96.0650024 128.1170044  85.6159973  96.1419983
 127.6169968  85.8509979  95.3570023 130.2850037  85.5719986  95.0930023
 130.2579956  84.4629974  95.1650009 131.3370056  85.8899994  95.2549973
 129.8809967  86.0000000  93.6669998 129.8890076  87.1090012  93.6070023
 128.8489990  85.6569977  93.4420013 130.8399963  85.4430008  92.6029968
 130.7669983  84.3349991  92.5729980 131.8760071  85.6999969  92.9089966
 130.6109924  86.0169983  91.1959991 131.4880066  85.7529984  90.5680008
 130.5659943  87.1259995  91.2529984 129.3520050  85.4990005  90.4820023
 129.3809967  84.3889999  90.4479980 128.4479980  85.8030014  91.0510025
 129.2649994  86.0490036  89.0510025 130.2140045  85.8150024  88.5210037
 129.1829987  87.1549988  89.1050034 128.1000061  85.5130005  88.2099991
 128.1730042  84.4049988  88.1589966 127.1350021  85.7740021  88.6940002
 128.1280060  86.0800018  86.7819977 127.9749985  87.1800003  86.8180008
 129.1380005  85.9039993  86.3539963 127.0930023  85.4479980  85.8420029
 127.2259979  84.3450012  85.8560028 126.0709991  85.6760025  86.2129974
 127.2259979  85.9369965  84.3939972 127.0650024  87.0360031  84.3700027
 128.2649994  85.7490005  84.0479965 126.2519989  85.2730026  83.4250031
 126.3990021  85.6689987  82.3970032 126.4049988  84.1729965  83.4010010
 125.2030029  85.4800034  83.7249985 123.5439987  92.0390015 107.0149994
 122.6119995  91.5289993 107.6979980 123.5429993  93.1989975 106.5120010
 124.9580002  91.3249969 107.1029968 126.0759964  89.2740021 107.6699982
 126.7160034  89.4280014 106.7750015 124.8000031  89.9150009 107.4359970
 125.7850037  92.0459976 108.1920013 125.1549988  92.1090012 109.1050034
 125.9879990  93.0859985 107.8610001 127.0709991  91.3669968 108.5589981
 127.7409973  91.4300003 107.6750031 127.6589966  92.0270004 109.6959991
 126.8180008  89.9000015 108.8539963 127.8099976  89.4059982 108.9329987
 126.1259995  89.6979980 110.0930023 126.6279984  90.1169968 110.7959976
 125.8840027  87.7639999 107.8170013 125.2190018  87.5709991 108.6859970
 127.1460037  87.1070023 108.0439987 127.0220032  86.2149963 107.7099991
 125.2399979  87.1819992 106.5650024 124.2799988  87.7070007 106.3690033
 125.8990021  87.3539963 105.6880035 124.9690018  85.7740021 106.7129974
 124.5199966  85.4840012 105.9150009 129.9380035  91.3099976 109.0729980
 130.6199951  91.4729996 108.0250015 130.0290070  90.3430023 109.8820038
 128.9949951  92.4950027 109.5299988 128.2720032  94.7509995 109.0709991
 127.2269974  94.3990021 109.2129974 129.0570068  93.6210022 108.6100006
 129.3970032  92.9599991 110.9449997 130.4779968  93.2160034 110.9240036
 129.2790070  92.1129990 111.6549988 128.6300049  94.1429977 111.4349976
 127.5550003  93.8720016 111.5100021 129.0859985  94.4980011 112.7399979
 128.5939941  94.0149994 113.4089966 128.7409973  95.2839966 110.4349976
 128.0420074  96.0830002 110.7620010 130.0549927  95.8570023 110.3750000
 130.3329926  96.0810013 111.2659988 128.2079926  95.8410034 108.0049973
 129.2239990  96.2679977 107.8720016 127.3050003  96.8789978 108.4219971
 127.0019989  97.2799988 107.6039963 127.7289963  95.2900009 106.6679993
 128.3509979  94.4219971 106.3600006 126.6829987  94.9300003 106.7669983
 127.7850037  96.2890015 105.6330032 128.6779938  96.2819977 105.2789993
  64.1370010 112.3860016 104.7160034  65.1080017 110.9560013 105.9039993
  65.1119995 111.8590012 104.7829971  65.8990021 112.6299973 104.9270020
  65.4020004 111.1309967 103.4720001  64.3929977 110.1389999 103.2300034
  66.3779984 110.6179962 103.6149979  64.8050003 109.2679977 102.1709976
  65.8580017 108.9670029 102.3590012  64.0729980 108.0589981 102.0350037
  62.8440018 107.9530029 102.7679977  62.8940010 108.4980011 103.7350006
  62.7270012 106.8830032 103.0439987  65.4909973 112.0360031 102.2269974
  64.5250015 112.5790024 102.1490021  66.6070023 112.9250031 102.3799973
  66.4639969 114.5790024 102.5339966  67.8580017 115.1200027 102.8499985
  65.4779968 114.9039993 103.6520004  65.9489975 115.1760025 101.2229996
  65.6809998 111.2190018 100.9359970  65.4869995 112.0950012  99.8130035
  66.7170029 110.8219986 100.9860001  66.2490005 111.8899994  98.7429962
  67.1740036 111.0920029  98.6699982  65.6610031 112.5940018  97.5390015
  64.5609970 112.4380035  97.5299988  66.0910034 112.1299973  96.6259995
  64.7659988 109.9929962 100.8470001  63.7239990 110.3509979 100.6999969
  65.1009979 109.0630035  99.7649994  65.6640015 108.2809982 100.0220032
  61.4469986 107.6920013 100.6190033  62.3059998 108.0159988  99.9929962
  61.4970016 106.2630005 100.7200012  60.7239990 105.9179993 101.1719971
  61.5960007 108.3720016 101.9879990  60.7350006 108.0530014 102.6129990
  61.5340004 109.8130035 101.8929977  60.3689995 110.3180008 101.2009964
  60.5540009 111.3960037 101.0029984  59.1759987 110.1460037 101.9560013
  59.6389999 111.4169998 104.1579971  58.4879990 112.6159973 102.2440033
  57.2900009 110.7850037 103.4929962  58.6459999 111.2990036 103.0080032
  60.1559982 108.1740036  99.9729996  59.3520012 107.9759979 100.7149963
  59.7050018 107.4929962  98.7949982  60.4970016 107.4440002  97.7269974
  61.5589981 108.0279999  97.6110001  59.6710014 106.9319992  96.5500031
  59.5789986 107.7529984  95.8069992  58.6520004 106.6610031  96.9010010
  60.2490005 109.6809998  99.8180008  61.2130013 109.8769989  99.3020020
  59.1780014 110.2549973  99.0130005  58.2960014 109.7890015  99.0429993
  66.0429993 114.0749969  97.6149979  65.8160019 114.4499969  98.6360016
  65.2969971 114.8140030  96.6419983  63.9990005 114.9369965  96.8769989
  63.4410019 114.6979980  97.9369965  63.3479996 115.6800003  95.7099991
  63.9650002 116.5739975  95.4779968  62.3429985 116.0199966  96.0410004
  63.2190018 114.7850037  94.4589996  62.5649986 113.9140015  94.6819992
  64.2220001 114.3960037  94.1829987  62.6409988 115.5530014  93.2630005
  63.3019981 116.4179993  93.0439987  61.6430016 115.9580002  93.5370026
  62.4980011 114.7139969  91.9810028  62.1059990 115.3850021  91.1869965
  61.7480011 113.9089966  92.1360016  63.8149986 114.0790024  91.5009995
  64.0410004 113.2040024  92.1470032  64.6429977 114.8089981  91.6289978
  63.7999992 113.6259995  90.0309982  62.8880005 113.0230026  89.8339996
  64.6819992 112.9739990  89.8600006  63.8810005 114.8020020  89.0429993
  64.7860031 115.3990021  89.2890015  62.9949989 115.4589996  89.1750031
  63.9640007 114.3799973  87.5699997  63.0320015 113.8440018  87.2910004
  64.8150024 113.6770020  87.4400024  64.1559982 115.5759964  86.6250000
  65.1050034 116.0920029  86.8870010  63.3219986 116.2929993  86.7789993
  64.1920013 115.1729965  85.1460037  63.2179985 114.7080002  84.8840027
  64.9840012 114.4079971  85.0019989  64.4469986 116.3529968  84.1940002
  65.4550018 116.7710037  84.4020004  63.7000008 117.1480026  84.4020004
  64.3629990 115.9810028  82.7030029  63.3199997 115.6740036  82.4779968
  64.5859985 116.8889999  82.1029968  65.3010025 114.8550034  82.2669983
  65.2669983 114.7210007  81.1640015  65.0019989 113.8990021  82.7480011
  66.3479996 115.0759964  82.5650024  67.5589981 114.3130035  97.3649979
  68.1460037 113.4449997  97.7360001  67.8489990 115.1900024  97.9820023
  67.9840012 114.6399994  95.9130020  69.0690002 114.8789978  95.9079971
  67.4479980 115.5569992  95.5889969  67.7289963 113.5390015  94.8720016
  66.6579971 113.2440033  94.8980026  68.3399963 112.6429977  95.1149979
  68.0350037 114.0090027  93.4430008  69.0830002 114.3730011  93.3899994
  67.3649979 114.8639984  93.2080002  67.8359985 112.9199982  92.3789978
  68.6009979 112.1299973  92.5339966  66.8339996 112.4560013  92.5039978
  67.9580002 113.4700012  90.9509964  68.8990021 114.0559998  90.8779984
  67.1090012 114.1589966  90.7549973  67.9909973 112.3809967  89.8679962
  68.8619995 111.7190018  90.0640030  67.0690002 111.7649994  89.9300003
  68.1240005 112.9629974  88.4530029  67.2210007 113.5670013  88.2200012
  69.0039978 113.6409988  88.4339981  68.3199997 111.8990021  87.3629990
  67.4509964 111.2060013  87.3610001  69.2279968 111.3079987  87.6080017
  68.4919968 112.5049973  85.9629974  67.5749969 113.0770035  85.7040024
  69.3369980 113.2249985  85.9970016  68.7720032 111.4749985  84.8710022
  68.8740005 111.9749985  83.8840027  69.7170029 110.9319992  85.0859985
  67.9449997 110.7360001  84.8069992  64.5989990 109.1279984  98.5189972
  63.8919983 110.0650024  98.1589966  64.9469986 107.9570007  97.5989990
  65.7129974 107.3180008  98.0899963  64.0329971 107.3440018  97.4459991
  65.4899979 108.4349976  96.2330017  66.3679962 109.0889969  96.4229965
  64.4300003 109.1090012  95.5419998  64.7949982 110.1559982  94.8050003
  65.9420013 110.5609970  94.6719971  63.5649986 111.0419998  94.5690002
  63.9059982 111.9609985  94.0449982  63.1570015 111.3300018  95.5609970
  62.4910011 110.3199997  93.7379990  61.5769997 110.9509964  93.7239990
  62.2229996 109.3550034  94.2190018  62.9239998 110.0759964  92.2880020
  63.8800011 109.5100021  92.2610016  63.0979996 111.0599976  91.8020020
  61.8629990 109.3099976  91.4879990  60.8699989 109.7669983  91.6869965
  61.8269997 108.2549973  91.8349991  62.1010017 109.3479996  89.9729996
  63.0940018 108.9140015  89.7289963  62.1040001 110.4110031  89.6490021
  61.0099983 108.5999985  89.1940002  60.0219994 108.8740005  89.6230011
  61.1479988 107.5059967  89.3290024  60.9819984 108.9410019  87.6989975
  61.9700012 108.7180023  87.2429962  60.8050003 110.0339966  87.5999985
  59.8909988 108.1780014  86.9300003  58.9500008 108.1790009  87.5199966
  60.2229996 107.1230011  86.8249969  59.5989990 108.7549973  85.5360031
  59.0309982 107.9990005  84.9540024  60.5600014 108.9359970  85.0080032
  58.7789993 110.0530014  85.5699997  57.8219986 109.8590012  86.0999985
  59.3400002 110.8040009  86.1650009  58.4830017 110.6429977  84.1910019
  57.9179993 109.9150009  83.5699997  57.8810005 111.5719986  84.2870026
  59.4309998 110.8899994  83.6679993  65.9520035 107.2129974  95.3929977
  65.0790024 106.5410004  95.2509995  66.7139969 106.6549988  95.9779968
  66.5459976 107.5439987  94.0120010  67.4240036 108.2149963  94.1340027
  65.7809982 108.0920029  93.4209976  66.9660034 106.2969971  93.2210007
  66.0770035 105.6439972  93.0869980  67.7170029 105.7279968  93.8079987
  67.5540009 106.6039963  91.8320007  67.7939987 105.6380005  91.3389969
  68.5049973 107.1679993  91.9479980  66.6200027 107.4049988  90.9110031
  65.6100006 106.9440002  90.9369965  66.5240021 108.4469986  91.2839966
  67.1039963 107.4219971  89.4550018  67.2559967 106.3679962  89.1360016
  68.0839996 107.9400024  89.3860016  66.1050034 108.0690002  88.4840012
  66.0640030 109.1660004  88.6520004  65.0950012 107.6569977  88.6979980
  66.4430008 107.7669983  87.0189972  67.3899994 108.2779999  86.7399979
  66.6080017 106.6719971  86.9280014  65.3339996 108.1470032  86.0309982
  64.3840027 107.6800003  86.3679962  65.1920013 109.2490005  86.0299988
  65.6370010 107.6600037  84.6070023  65.8339996 106.5670013  84.6480026
  66.5630035 108.1589966  84.2509995  64.5090027 107.9189987  83.6129990
  63.5779991 107.4089966  83.9400024  64.3030014 109.0080032  83.5400009
  64.7809982 107.5439987  82.6029968  60.3139992 105.6999969  95.8820038
  59.5519981 105.2819977  95.1890030  60.5940018 104.6969986  96.8519974
  61.4490013 104.7639999  97.2829971  61.5639992 106.0000000  95.0240021
  62.3950005 106.3850021  95.6520004  61.2900009 106.8040009  94.3069992
  62.0489998 104.7860031  94.2089996  61.1619987 104.2699966  93.7829971
  62.5639992 104.0650024  94.8789978  62.9749985 105.1600037  93.0419998
  63.8689995 105.7009964  93.4189987  62.4210014 105.8560028  92.3750000
  63.4129982 103.9240036  92.2399979  62.5139999 103.3089981  92.0230026
  64.0940018 103.3119965  92.8700027  64.1009979 104.2350006  90.9000015
  65.0149994 104.8430023  91.0699997  64.4179993 103.2699966  90.4489975
  63.1780014 104.9509964  89.9010010  63.0200005 106.0039978  90.2190018
  62.1910019 104.4400024  89.9250031  63.6829987 104.9250031  88.4509964
  63.9459991 103.8769989  88.1949997  64.6100006 105.5299988  88.3539963
  62.6240005 105.4169998  87.4520035  61.6430016 104.9789963  87.7330017
  62.5359993 106.5220032  87.5260010  62.9249992 105.0169983  86.0019989
  63.8590012 105.5220032  85.6750031  63.0989990 103.9199982  85.9700012
  61.8009987 105.3590012  85.0159988  60.8470001 104.9359970  85.3970032
  61.6889992 106.4629974  84.9840012  62.0499992 104.8389969  83.5989990
  61.2210007 105.1419983  82.9240036  62.9970016 105.2570038  83.1949997
  62.1240005 103.7300034  83.5940018  59.3759995 111.2979965  98.1869965
  60.4189987 111.9509964  98.2070007  58.2430000 111.6080017  97.2160034
  57.6049995 112.4179993  97.6309967  57.6250000 110.6920013  97.1070023
  58.8019981 111.9970016  95.8300018  59.6930008 111.3759995  95.5979996
  59.1580009 113.3779984  95.8320007  59.6489983 113.6760025  95.0619965
  57.7599983 111.7529984  94.7170029  56.9269981 112.4810028  94.8170013
  57.3330002 110.7379990  94.8629990  58.3440018 111.8089981  93.2949982
  59.1689987 111.0680008  93.2200012  58.7750015 112.8140030  93.1029968
  57.3009987 111.4899979  92.2139969  56.5379982 112.2969971  92.1949997
  56.7830009 110.5449982  92.4869995  57.8989983 111.3160019  90.8079987
  57.0800018 111.0270004  90.1149979  58.6339989 110.4840012  90.8229980
  58.5909996 112.5719986  90.2529984  57.8919983 113.4319992  90.3259964
  59.4879990 112.8050003  90.8649979  59.0149994 112.3960037  88.7880020
  58.1269989 112.0699997  88.2030029  59.7719994 111.5859985  88.7220001
  59.5769997 113.6679993  88.1360016  58.8730011 114.5070038  88.3219986
  60.5509987 113.9290009  88.6019974  59.7519989 113.5070038  86.6190033
  60.5070000 112.7160034  86.4189987  58.7869987 113.1600037  86.1920013
  60.1650009 114.7919998  85.8919983  59.4640007 115.6100006  86.1640015
  61.1819992 115.0889969  86.2279968  60.1689987 114.6269989  84.3669968
  60.8730011 113.8079987  84.1039963  59.1559982 114.3140030  84.0360031
  60.5769997 115.8889999  83.6129990  60.6059990 115.6989975  82.5189972
  59.8499985 116.7050018  83.8130035  61.5830002 116.2249985  83.9430008
  66.7429962 112.2279968 107.2750015  66.8750000 113.2470016 108.0120010
  67.6780014 111.4810028 106.8679962  65.2829971 111.6250000 107.1589966
  62.9529991 112.1210022 107.4499969  62.7500000 111.5619965 106.5110016
  64.2900009 112.6650009 107.3759995  65.1460037 110.5100021 108.2129974
  65.4649963 110.9250031 109.1920013  65.8570023 109.6940002 107.9589996
  63.7589989 109.9670029 108.3619995  63.4739990 109.4810028 107.4039993
  63.7560005 108.9990005 109.4260025  62.8030014 111.1200027 108.6009979
  61.7700005 110.7129974 108.5559998  62.9809990 111.7350006 109.8830032
  62.7109985 111.1159973 110.5660019  61.9510002 113.2689972 107.5049973
  62.1870003 113.9059982 108.3840027  60.6049995 112.7760010 107.6429977
  60.0600014 113.4199982 107.1849976  62.0499992 114.1080017 106.2369995
  63.0960007 114.4479980 106.0810013  61.7809982 113.4800034 105.3610001
  61.1850014 115.2590027 106.2890015  61.6739998 115.9739990 106.7040024
  61.5299988 108.0690002 108.9509964  60.9809990 107.5879974 107.9219971
  60.9399986 108.6179962 109.9240036  63.0670013 107.7799988 109.1630020
  65.0090027 106.7020035 108.2239990  65.5800018 107.6330032 108.4280014
  63.6230011 107.0650024 108.0240021  63.2779999 106.9639969 110.4530029
  62.6459999 106.0530014 110.3870010  62.9150009 107.5510025 111.3239975
  64.6989975 106.5559998 110.6650009  65.3259964 107.4680023 110.7689972
  64.8069992 105.8109970 111.8759995  65.0009995 106.4000015 112.6090012
  65.2040024 105.7949982 109.4459991  66.2929993 105.6230011 109.5859985
  64.5759964 104.5149994 109.2750015  64.7509995 103.9769974 110.0500031
  65.5869980 106.1200027 106.9369965  65.0640030 105.1660004 106.7119980
  66.9950027 105.8610001 107.0989990  67.3320007 105.7870026 106.2030029
  65.3939972 107.0729980 105.7620010  64.3150024 107.3199997 105.6579971
  65.9369965 108.0250015 105.9430008  65.8509979 106.4759979 104.5319977
  65.2710037 106.7779999 103.8290024 117.2570038 113.8170013 104.6740036
 115.6210022 113.3079987 105.8789978 116.4660034 113.0400009 104.7429962
 116.9759979 112.0609970 104.8700027 115.6630020 113.0039978 103.4380035
 115.0530014 114.2870026 103.2180023 114.8629990 112.2460022 103.5790024
 114.0469971 114.1869965 102.2009964 113.3840027 113.3300018 102.4449997
 113.1959991 115.3170013 102.0469971 113.5019989 116.4840012 102.8259964
 113.9680023 116.2350006 103.8030014 112.5360031 116.9680023 103.0810013
 116.4660034 112.6230011 102.1790009 117.2639999 113.3860016 102.0500031
 117.0029984 111.3040009 102.3649979 118.6500015 110.9660034 102.4110031
 118.7620010 109.5670013 103.0370026 119.3479996 112.0250015 103.2779999
 119.1800003 110.9670029 100.9700012 115.5640030 112.6589966 100.9309998
 116.3960037 112.5400009  99.7610016 114.8659973 111.8020020 101.0419998
 115.9260025 111.8160019  98.7450027 114.8690033 111.1979980  98.7379990
 116.6849976 112.1340027  97.4729996 116.7460022 113.2369995  97.3539963
 116.1110001 111.7200012  96.6169968 114.6839981 113.9160004 100.8529968
 115.3479996 114.7819977 100.6439972 113.6640015 113.8450012  99.8050003
 112.7789993 113.4739990 100.0729980 113.8140030 117.8219986 100.6620026
 113.9970016 116.9229965 100.0370026 112.4049988 118.0820007 100.6250000
 112.1709976 118.8550034 101.1449966 114.3310013 117.5250015 102.0699997
 114.2389984 118.4609985 102.6620026 115.7360001 117.1770020 102.0490036
 116.5849991 118.1520004 101.3899994 117.5329971 117.6149979 101.1699982
 116.8069992 119.2779999 102.2360001 118.7109985 118.1399994 103.5940018
 119.2839966 119.9489975 101.9199982 118.0920029 120.5540009 104.0419998
 118.2829971 119.4729996 102.9789963 114.6210022 118.9820023 100.1179962
 114.6029968 119.7799988 100.8909988 114.0739975 119.6050034  98.9520035
 113.8889999 118.8440018  97.8789978 114.4430008 117.7809982  97.6559982
 113.1920013 119.6819992  96.8239975 113.8379974 119.7129974  95.9199982
 113.0390015 120.7200012  97.1880035 116.0550003 118.5169983 100.0039978
 116.0100021 117.5479965  99.4619980 116.9100037 119.4189987  99.2399979
 116.6579971 120.3830032  99.2340012 118.0579987 111.4680023  97.5619965
 118.5139999 111.7330017  98.5390015 118.9049988 111.9290009  96.4990005
 119.2350006 113.2170029  96.5619965 119.1090012 113.9380035  97.5410004
 119.9599991 113.6279984  95.2799988 120.4749985 112.7399979  94.8570023
 120.7229996 114.3899994  95.5469971 118.9749985 114.2070007  94.2490005
 118.4860001 115.1090012  94.6729965 118.1890030 113.4459991  94.0589981
 119.6510010 114.5770035  92.9189987 120.3050003 113.7360001  92.6070023
 120.3010025 115.4660034  93.0699997 118.6910019 114.8369980  91.7460022
 119.3030014 115.1110001  90.8600006 118.0380020 115.7050018  91.9779968
 117.8270035 113.6190033  91.3779984 117.0780029 113.4619980  92.1829987
 118.4660034 112.7119980  91.3290024 117.0699997 113.7600021  90.0500031
 116.5339966 114.7330017  90.0360031 116.3079987 112.9530029  89.9940033
 117.9479980 113.6500015  88.7969971 118.5080032 112.6910019  88.8369980
 118.6890030 114.4779968  88.7799988 117.1259995 113.6910019  87.5029984
 116.6439972 114.6880035  87.4160004 116.3199997 112.9290009  87.5670013
 117.9619980 113.4229965  86.2480011 118.4229965 112.4150009  86.3209991
 118.7829971 114.1709976  86.2139969 117.1880035 113.5329971  84.9319992
 116.7129974 114.5350037  84.8690033 116.3769989 112.7740021  84.9300003
 118.0950012 113.3349991  83.7089996 118.6259995 112.3649979  83.8119965
 118.8560028 114.1449966  83.7190018 117.3659973 113.3560028  82.3580017
 116.8239975 114.3209991  82.2610016 118.1320038 113.3150024  81.5540009
 116.3789978 112.2080002  82.1549988 115.9830017 112.2009964  81.1169968
 115.5260010 112.3050003  82.8600006 116.8700027 111.2320023  82.3560028
 117.9489975 109.9169998  97.5120010 117.0000000 109.5930023  97.9899979
 118.7779999 109.5240021  98.1380005 118.0830002 109.2460022  96.1259995
 118.0100021 108.1449966  96.2590027 119.1019974 109.4599991  95.7399979
 117.0709991 109.6719971  95.0479965 117.1009979 110.7760010  94.9290009
 116.0400009 109.3860016  95.3479996 117.4229965 109.0569992  93.6839981
 117.3270035 107.9520035  93.7330017 118.4889984 109.2919998  93.4769974
 116.5960007 109.5960007  92.5080032 115.5419998 109.2580032  92.5999985
 116.6009979 110.7070007  92.5390015 117.1809998 109.1439972  91.1610031
 117.2320023 108.0339966  91.1399994 118.2200012 109.5299988  91.0869980
 116.3970032 109.6279984  89.9339981 115.3809967 109.1790009  89.9449997
 116.2789993 110.7320023  89.9840012 117.1060028 109.2689972  88.6190033
 118.0869980 109.7900009  88.5950012 117.3020020 108.1760025  88.5970001
 116.3130035 109.6579971  87.3639984 116.0979996 110.7470016  87.4000015
 115.3389969 109.1220016  87.3649979 117.0670013 109.3519974  86.0630035
 117.9869995 109.9739990  86.0419998 117.3830032 108.2870026  86.0699997
 116.2559967 109.6230011  84.7979965 116.8720016 109.4390030  83.8919983
 115.3590012 108.9700012  84.7539978 115.9150009 110.6800003  84.7740021
 113.8750000 114.1999969  98.5270004 114.9240036 114.7259979  98.1610031
 112.7470016 113.8750000  97.5569992 112.1350021 113.0530014  97.9869995
 112.0999985 114.7679977  97.4199982 113.3249969 113.4020004  96.2060013
 114.1279984 112.6630020  96.4140015 113.8030014 114.5530014  95.4899979
 114.8889999 114.3600006  94.7330017 115.5029984 113.3059998  94.6389999
 115.5390015 115.7220001  94.4440002 116.5469971 115.5380020  94.0139999
 115.6529999 116.2570038  95.4100037 114.7310028 116.5719986  93.4540024
 115.0839996 117.6220016  93.5329971 113.6520004 116.5469971  93.7180023
 114.8830032 116.1330032  91.9990005 114.3809967 115.1549988  91.8369980
 115.9639969 115.9990005  91.7809982 114.3430023 117.1750031  91.0130005
 114.8190002 118.1549988  91.2340012 113.2470016 117.3010025  91.1470032
 114.6559982 116.8109970  89.5609970 114.1220016 115.8750000  89.2919998
 115.7470016 116.6169968  89.4739990 114.3010025 117.9049988  88.5530014
 114.8629990 118.8310013  88.8010025 113.2139969 118.1269989  88.6220016
 114.6380005 117.4749985  87.1230011 114.0889969 116.5329971  86.9079971
 115.7249985 117.2580032  87.0559998 114.2559967 118.5070038  86.0569992
 114.8759995 119.4209976  86.1780014 113.1930008 118.7880020  86.2119980
 114.4020004 117.9680023  84.6279984 113.9479980 118.7070007  83.9329987
 113.8219986 117.0240021  84.5510025 115.8489990 117.7040024  84.1930008
 116.4130020 118.6600037  84.2399979 116.3209991 117.0080032  84.9189987
 115.9940033 117.1139984  82.7939987 115.5709991 117.8000031  82.0289993
 117.0660019 116.9520035  82.5550003 115.4720001 116.1350021  82.7269974
 112.2160034 112.6800003  95.3980026 111.3769989 113.3880005  95.2269974
 111.8300018 111.8430023  96.0169983 112.6699982 112.1070023  94.0490036
 113.5240021 111.4150009  94.2080002 113.0279999 112.9509964  93.4229965
 111.5530014 111.3730011  93.2959976 110.7160034 112.0839996  93.1289978
 111.1699982 110.5390015  93.9219971 112.0009995 110.8170013  91.9339981
 111.1200027 110.3600006  91.4349976 112.7590027 110.0199966  92.0869980
 112.5910034 111.8929977  91.0110016 111.8970032 112.7600021  90.9850006
 113.5609970 112.2509995  91.4189987 112.8069992 111.4199982  89.5709991
 111.8399963 111.0410004  89.1760025 113.5419998 110.5869980  89.5500031
 113.2910004 112.5589981  88.6679993 114.3099976 112.8789978  88.9739990
 112.6110001 113.4270020  88.8059998 113.2880020 112.1969986  87.1839981
 114.0459976 111.4100037  86.9850006 112.2890015 111.7910004  86.9160004
 113.5579987 113.4059982  86.2870026 112.7870026 114.1790009  86.4940033
 114.5520020 113.8399963  86.5289993 113.5139999 113.0469971  84.8050003
 112.5469971 112.5350037  84.6110001 114.3190002 112.3119965  84.5899963
 113.6429977 114.2360001  83.8690033 112.8420029 114.9789963  84.0699997
 114.6259995 114.7279968  84.0260010 113.5719986 113.9069977  82.8099976
 111.8420029 119.0429993  96.4729996 111.3809967 119.6809998  95.6890030
 110.9710007 119.0510025  97.5979996 111.1839981 118.4459991  98.3130035
 111.9449997 117.6490021  95.8320007 112.2639999 116.8799973  96.5680008
 112.7519989 117.7470016  95.0749969 110.6809998 117.1880035  95.0889969
 110.1640015 118.0790024  94.6740036 109.9860001 116.6999969  95.8059998
 110.9889984 116.2429962  93.9150009 111.5759964 115.3690033  94.2679977
 111.6119995 116.7969971  93.1800003 109.7249985 115.7600021  93.1999969
 109.1309967 116.6640015  92.9489975 109.1259995 115.1330032  93.8960037
 109.9479980 114.9970016  91.8850021 110.6110001 114.1220016  92.0530014
 108.9580002 114.6200027  91.5510025 110.5120010 115.8769989  90.7590027
 111.6060028 116.0009995  90.9059982 110.0390015 116.8809967  90.8259964
 110.2409973 115.3300018  89.3509979 109.1460037 115.1839981  89.2369995
 110.7310028 114.3389969  89.2419968 110.7249985 116.2600021  88.2289963
 110.3290024 117.2809982  88.4150009 111.8339996 116.3099976  88.2549973
 110.2770004 115.8130035  86.8300018 110.6630020 114.7870026  86.6500015
 109.1669998 115.7679977  86.8069992 110.7639999 116.7289963  85.6989975
 110.4189987 117.7639999  85.9079971 111.8750000 116.7310028  85.7129974
 110.2900009 116.3190002  84.3050003 110.6660004 117.0299988  83.5390015
 110.6669998 115.3030014  84.0589981 109.1800003 116.3000031  84.2610016
 117.8369980 118.9449997  98.3880005 118.2710037 117.7959976  98.4840012
 118.2630005 119.8759995  97.2590027 119.1190033 120.5049973  97.5830002
 117.4049988 120.5400009  97.0210037 118.6139984 119.0490036  96.0039978
 117.9739990 118.1409988  95.9570007 119.9879990 118.6699982  96.0459976
 120.2570038 118.0439987  95.3700027 118.3499985 119.8420029  94.7089996
 119.0849991 120.6689987  94.6050034 117.3430023 120.3020020  94.7939987
 118.3450012 118.9660034  93.4449997 117.6520004 118.1149979  93.6119995
 119.3560028 118.5469971  93.2549973 117.8639984 119.7399979  92.2129974
 118.6050034 120.5189972  91.9329987 116.9209976 120.2600021  92.4869995
 117.5579987 118.8470001  91.0070038 116.8909988 119.4160004  90.3249969
 117.0039978 117.9440002  91.3410034 118.7789993 118.4069977  90.1920013
 119.3820038 119.3089981  89.9540024 119.4120026 117.7119980  90.7839966
 118.3499985 117.7440033  88.8759995 117.5419998 118.3649979  88.4349976
 117.9209976 116.7399979  89.0800018 119.4649963 117.6449966  87.8310013
 119.9309998 118.6480026  87.7330017 120.2440033 116.9270020  88.1669998
 118.9309998 117.2360001  86.4530029 118.5719986 116.1849976  86.4929962
 118.0400009 117.8529968  86.2119980 119.9489975 117.4039993  85.3209991
 120.4359970 118.3980026  85.4069977 120.7300034 116.6210022  85.4290009
 119.3190002 117.2949982  83.9309998 118.7190018 116.3610001  83.8939972
 118.6149979 118.1449966  83.8059998 120.3119965 117.2990036  82.7730026
 119.7699966 117.2350006  81.8050003 120.9049988 118.2389984  82.7789993
 121.0059967 116.4349976  82.8550034 116.2340012 111.2679977 107.1630020
 117.1159973 110.7539978 107.9069977 115.2289963 110.6679993 106.6849976
 116.1790009 112.8539963 107.1210022 117.4800034 114.8389969 107.5500031
 117.0500031 115.2870026 106.6279984 117.5049973 113.4020004 107.3779984
 115.1729965 113.3270035 108.1930008 115.4369965 112.8320007 109.1520004
 114.1579971 112.9739990 107.9120026 115.1669998 114.8089981 108.4079971
 114.8499985 115.2839966 107.4550018 114.2379990 115.1370010 109.4550018
 116.5759964 115.2770004 108.7070007 116.5660019 116.3880005 108.7200012
 117.0530014 114.8280029 109.9830017 116.5380020 115.2490005 110.6750031
 118.9079971 115.3669968 107.6729965 119.3880005 114.8889999 108.5540009
 118.9160004 116.7959976 107.8610001 119.7679977 117.0830002 107.5250015
 119.7119980 115.0270004 106.4240036 119.6630020 113.9359970 106.2229996
 119.2610016 115.5410004 105.5479965 121.0920029 115.4209976 106.5540009
 121.5859985 114.6559982 106.8590012 114.1740036 117.5159988 108.8499985
 114.2170029 117.9260025 107.6579971 114.7639999 118.0309982 109.8430023
 113.3420029 116.2070007 109.1549988 111.6230011 114.7279968 108.3300018
 112.2979965 113.8779984 108.5660019 112.4489975 115.8850021 108.0500031
 112.5250015 116.3759995 110.4530029 111.9000015 117.2870026 110.3450012
 113.2180023 116.5530014 111.3030014 111.6439972 115.2080002 110.7500000
 112.2779999 114.3079987 110.8980026 110.9309998 115.4449997 111.9639969
 111.4179993 115.0849991 112.7089996 110.7300034 114.9250031 109.5650024
 110.2060013 113.9670029 109.7720032 109.7310028 115.9339981 109.3610001
 109.1869965 115.9950027 110.1500015 110.8450012 114.3160019 107.0810013
 110.1429977 115.1330032 106.8109970 110.0940018 113.1139984 107.3359985
 109.9049988 112.7539978 106.4660034 111.7890015 114.0660019 105.9079971
 112.4179993 114.9619980 105.7210007 112.4759979 113.2300034 106.1589966
 111.0640030 113.7429962 104.7040024 110.9410019 114.5550003 104.2070007
  48.8470001  49.2490005 104.5660019  49.2270012  50.9739990 105.6910019
  48.5470009  50.3190002 104.6009979  47.4480019  50.3419991 104.7639999
  48.8489990  50.9790001 103.2529984  50.2630005  50.9249992 103.0130005
  48.5400009  52.0419998 103.3389969  50.6119995  51.7519989 101.8960037
  50.1450005  52.7500000 102.0400009  52.0029984  51.9860001 101.7289963
  52.9029999  51.1230011 102.4449997  52.5480003  50.9269981 103.4789963
  53.8540001  51.6839981 102.5650024  48.1150017  50.3590012 102.0479965
  48.4169998  49.2910004 101.9889984  46.7019997  50.5159988 102.2559967
  45.6389999  49.2200012 102.3809967  44.3670006  49.7879982 103.0220032
  46.2739983  48.1419983 103.2689972  45.3499985  48.6990013 100.9680023
  48.5429993  51.0470009 100.7399979  47.9799995  50.3199997  99.6299973
  48.1500015  52.0830002 100.8150024  47.6209984  51.0569992  98.5749969
  47.6469994  52.2779999  98.5270004  47.4189987  50.1889992  97.3479996
  48.2299995  49.4309998  97.3020020  47.4879990  50.8380013  96.4489975
  50.0680008  51.1769981 100.6050034  50.4879990  50.1529999 100.5130005
  50.5250015  51.9690018  99.4560013  50.7410011  52.9269981  99.6340027
  53.6559982  49.9679985 100.2779999  52.7579994  50.2900009  99.7080002
  54.6619987  50.9760017 100.1100006  55.4869995  50.7200012 100.5289993
  53.2610016  49.8040009 101.7460022  54.1529999  49.4210014 102.2860031
  52.2290001  48.8059998 101.9120026  52.5649986  47.5149994 101.3529968
  51.6090012  46.9480019 101.3389969  53.5509987  46.8619995 102.1449966
  52.1189995  45.7449989 103.9860001  52.7560005  44.4080009 101.9150009
  54.5149994  45.0439987 103.6019974  53.1959991  45.4519997 102.9430008
  54.1020012  48.6279984  99.7330017  54.9080009  48.2729988 100.4100037
  54.7369995  48.7389984  98.4550018  54.0379982  48.8730011  97.3339996
  52.8660011  48.5890007  97.1669998  55.0509987  48.9809990  96.2020035
  54.5660019  48.5870018  95.2829971  55.9179993  48.3260002  96.4339981
  52.9659996  47.6349983  99.8830032  52.0830002  48.0890007  99.3840027
  53.2680016  46.3569984  99.2570038  54.2280006  46.0890007  99.2369995
  46.0289993  49.5610008  97.4440002  45.9280014  49.0820007  98.4410019
  45.8559990  48.5820007  96.4110031  46.6199989  47.5040016  96.4990005
  47.2430000  47.1440010  97.4860001  46.5050011  46.6920013  95.2050018
  45.4550018  46.7400017  94.8440018  46.7459984  45.6349983  95.4479980
  47.4679985  47.2150002  94.1169968  48.5149994  47.1590004  94.4850006
  47.2389984  48.2820015  93.9089966  47.3559990  46.4169998  92.8099976
  46.3069992  46.4710007  92.4499969  47.5849991  45.3489990  93.0159988
  48.2789993  46.9080009  91.6790009  48.1020012  46.2550011  90.7969971
  49.3440018  46.7869987  91.9710007  48.0340004  48.3699989  91.2689972
  48.4850006  49.0340004  92.0380020  46.9410019  48.5699997  91.2559967
  48.6049995  48.7449989  89.8909988  49.6609993  48.4090004  89.8109970
  48.5919991  49.8520012  89.7990036  47.7980003  48.1669998  88.7210007
  46.7459984  48.5120010  88.8150024  47.8050003  47.0579987  88.7799988
  48.3170013  48.5830002  87.3430023  49.3800011  48.2770004  87.2419968
  48.2739983  49.6910019  87.2679977  47.5019989  47.9809990  86.1930008
  46.4529991  48.3400002  86.2649994  47.4970016  46.8759995  86.3050003
  48.0670013  48.3310013  84.8109970  49.1220016  47.9840012  84.7740021
  48.0779991  49.4350014  84.6849976  47.2820015  47.6870003  83.6569977
  46.3580017  48.2809982  83.4909973  46.9790001  46.6619987  83.9599991
  48.0660019  47.5750008  82.3369980  48.8540001  46.8030014  82.4690018
  47.3709984  47.2140007  81.5500031  48.7299995  48.8709984  81.8720016
  49.2109985  48.7360001  80.8789978  49.5079994  49.1829987  82.6009979
  47.9819984  49.6899986  81.8000031  44.9010010  50.6240005  97.3219986
  45.2490005  51.5970001  97.7279968  44.0690002  50.2809982  97.9739990
  44.3019981  50.8450012  95.9140015  43.5050011  51.6160011  95.9869995
  43.8129997  49.9000015  95.5940018  45.2830009  51.2690010  94.8069992
  46.0979996  50.5190010  94.7249985  45.7480011  52.2470016  95.0540009
  44.5870018  51.3499985  93.4410019  43.8160019  52.1489983  93.4649963
  44.0690002  50.3839989  93.2600021  45.5470009  51.5960007  92.2689972
  46.0610008  52.5719986  92.4059982  46.3230019  50.8009987  92.2669983
  44.8190002  51.5849991  90.9160004  44.0610008  52.3959999  90.9089966
  44.2820015  50.6180000  90.8079987  45.7519989  51.7620010  89.7099991
  46.3260002  52.7060013  89.8249969  46.4850006  50.9269981  89.6869965
  44.9920006  51.7980003  88.3740005  44.4239998  50.8510017  88.2580032
  44.2599983  52.6339989  88.4010010  45.9109993  51.9809990  87.1589966
  46.6320000  51.1360016  87.1220016  46.5029984  52.9129982  87.2880020
  45.1590004  52.0530014  85.8229980  44.5649986  51.1230011  85.6969986
  44.4469986  52.9049988  85.8639984  46.0779991  52.2319984  84.6129990
  45.4840012  52.2989998  83.6770020  46.6769981  53.1619987  84.7190018
  46.7789993  51.3740005  84.5289993  50.7420006  51.4570007  98.2300034
  50.4949989  50.2789993  97.9810028  51.3349991  52.4049988  97.1880035
  51.0950012  53.4500008  97.4800034  52.4389992  52.2799988  97.1760025
  50.7519989  52.1489983  95.7760010  49.6459999  52.2280006  95.8529968
  51.1969986  50.8699989  95.2979965  50.3199997  50.2120018  94.5410004
  49.1409988  50.5050011  94.3939972  50.9539986  48.9129982  94.0240021
  50.1739998  48.3339996  93.4860001  51.2879982  48.3250008  94.9049988
  52.1450005  49.1899986  93.0869980  52.8320007  48.3180008  93.1289978
  52.7169991  50.0779991  93.4319992  51.7529984  49.3919983  91.6200027
  51.0509987  50.2480011  91.5199966  51.2280006  48.4739990  91.2779999
  52.9819984  49.6150017  90.7269974  53.7239990  48.8330002  90.9950027
  53.4449997  50.5999985  90.9509964  52.7159996  49.4970016  89.2170029
  52.3779984  50.4760017  88.8150024  51.8969994  48.7649994  89.0510025
  53.9589996  49.0029984  88.4570007  54.2869987  48.0489998  88.9209976
  54.7770004  49.7439995  88.5849991  53.7439995  48.7540016  86.9560013
  53.5379982  49.7260017  86.4599991  52.8540001  48.1040001  86.8119965
  54.9659996  48.0919991  86.2939987  55.0830002  47.0589981  86.6849976
  55.8660011  48.6710014  86.5930023  54.9360008  48.0639992  84.7570038
  55.9220009  47.7169991  84.3820038  54.7939987  49.1030006  84.3899994
  53.8450012  47.1879997  84.1340027  54.0390015  46.1250000  84.3889999
  52.8639984  47.4650002  84.5759964  53.7659988  47.3460007  82.6139984
  54.7190018  47.0250015  82.1419983  52.9389992  46.7330017  82.1969986
  53.5849991  48.4099998  82.3479996  51.2599983  53.2350006  94.7900009
  52.3689995  53.1759987  94.7470016  50.9889984  54.2290001  95.2070007
  50.7080002  53.1570015  93.3550034  49.6100006  53.3190002  93.3850021
  50.8930016  52.1459999  92.9339981  51.3639984  54.1769981  92.4140015
  52.4329987  53.9029999  92.2839966  51.3320007  55.1829987  92.8860016
  50.7270012  54.2729988  91.0199966  51.3479996  54.9640007  90.4110031
  49.7179985  54.7299995  91.1060028  50.5890007  52.9379997  90.2779999
  51.5120010  52.3339996  90.4120026  49.7459984  52.3709984  90.7300034
  50.3339996  53.1269989  88.7760010  51.3059998  53.2939987  88.2639999
  49.7159996  54.0390015  88.6370010  49.5870018  51.9640007  88.1169968
  48.5279999  51.9990005  88.4499969  50.0040016  50.9930000  88.4609985
  49.6230011  52.0000000  86.5830002  48.6720009  51.5639992  86.2089996
  49.6819992  53.0480003  86.2190018  50.7630005  51.1609993  86.0000000
  51.7420006  51.5670013  86.3330002  50.6730003  50.1279984  86.3980026
  50.7420006  51.0880013  84.4729996  50.9990005  52.0919991  84.0729980
  49.7120018  50.8450012  84.1350021  51.7029991  50.0480003  83.9160004
  52.7299995  50.2210007  84.3030014  51.3839989  49.0330009  84.2360001
  51.7220001  50.0800018  82.8050003  55.5519981  50.4269981  95.9530029
  56.6609993  50.3919983  95.8990021  55.1710014  51.3359985  96.9830017
  55.4900017  51.1399994  97.8669968  55.0460014  50.9780006  94.6070023
  53.9669991  51.2260017  94.7009964  55.1450005  50.1860008  93.8349991
  55.7960014  52.2190018  94.1009979  56.8779984  51.9819984  94.0149994
  55.6790009  53.0480003  94.8320007  55.2770004  52.6809998  92.7360001
  54.2150002  52.9889984  92.8450012  55.3030014  51.8160019  92.0400009
  56.0919991  53.8339996  92.1340027  57.1349983  53.4830017  91.9800034
  56.1259995  54.6819992  92.8509979  55.5550003  54.3489990  90.7880020
  54.6269989  54.9350014  90.9570007  56.3170013  55.0330009  90.3590012
  55.2540016  53.2420006  89.7659988  54.2929993  52.7509995  90.0279999
  56.0559998  52.4739990  89.8190002  55.1940002  53.7630005  88.3259964
  56.2080002  54.1329994  88.0640030  54.4920006  54.6209984  88.2559967
  54.7779999  52.6889992  87.3160019  55.2260017  51.7140007  87.6050034
  53.6739998  52.5680008  87.3560028  55.2089996  52.9910011  85.8750000
  54.9700012  54.0480003  85.6299973  56.3100014  52.8699989  85.7880020
  54.5050011  52.0779991  84.8679962  54.7099991  51.0260010  85.1600037
  53.4109993  52.2400017  84.9680023  54.8919983  52.2680016  83.4079971
  54.2970009  51.5870018  82.7630005  54.6959991  53.3139992  83.0889969
  55.9700012  52.0419998  83.2630005  52.3590012  45.6619987  98.5550003
  51.1479988  45.8549995  98.6790009  52.9150009  44.6570015  97.5569992
  52.6800003  43.6240005  97.8909988  54.0200005  44.7680016  97.5240021
  52.3330002  44.9580002  96.1630020  52.0970001  46.0400009  96.0729980
  51.1450005  44.1930008  95.9769974  50.6349983  44.4129982  95.1940002
  53.3349991  44.6290016  95.0370026  53.5219994  43.5340004  95.0009995
  54.2980003  45.1279984  95.2779999  52.8800011  45.1339989  93.6569977
  52.5979996  46.2050018  93.7460022  51.9749985  44.5730019  93.3420029
  53.9630013  45.0040016  92.5780029  54.2070007  43.9300003  92.4290009
  54.8849983  45.5110016  92.9339981  53.5559998  45.6250000  91.2330017
  54.4189987  45.5629997  90.5360031  53.3230019  46.7010002  91.3830032
  52.3440018  44.9490013  90.5749969  52.5550003  43.8639984  90.4660034
  51.4510002  45.0610008  91.2269974  52.0200005  45.5369987  89.1959991
  52.9389992  45.5099983  88.5719986  51.7239990  46.6020012  89.3099976
  50.9059982  44.7770004  88.4649963  51.1599998  43.6949997  88.4609985
  49.9490013  44.8989983  89.0159988  50.7290001  45.2439995  87.0149994
  50.3820000  46.2989998  87.0080032  51.7179985  45.2159996  86.5090027
  49.7449989  44.3779984  86.2149963  50.0649986  43.3160019  86.2799988
  48.7340012  44.4609985  86.6699982  49.6720009  44.7859993  84.7389984
  49.3129997  45.8359985  84.6859970  50.6990013  44.7729988  84.3160019
  48.7610016  43.9020004  83.8880005  48.7659988  44.2490005  82.8330002
  49.1069984  42.8460007  83.9130020  47.7179985  43.9430008  84.2659988
  47.1819992  51.5789986 106.9499969  46.2750015  51.1209984 107.7020035
  47.1860008  52.7169991 106.4020004  48.5629997  50.7980003 106.9489975
  49.5620003  48.6699982 107.4690018  50.1850014  48.7789993 106.5550003
  48.3289986  49.3940010 107.2620010  49.4910011  51.4570007 107.9960022
  48.9129982  51.5649986 108.9390030  49.7550011  52.4819984 107.6579971
  50.7379990  50.6819992 108.3010025  51.3629990  50.6730003 107.3830032
  51.4459991  51.3209991 109.3779984  50.3750000  49.2470016 108.6309967
  51.3190002  48.6650009 108.6949997  49.6980019  49.1199989 109.8889999
  50.2830009  49.4210014 110.5879974  49.2659988  47.1809998 107.6330032
  48.6320000  47.0449982 108.5350037  50.4850006  46.4329987 107.8059998
  50.2750015  45.5480003 107.5019989  48.5200005  46.6389999 106.4189987
  47.6049995  47.2410011 106.2310028  49.1650009  46.7330017 105.5189972
  48.1440010  45.2579994 106.6009979  47.2350006  45.2389984 106.9089966
  53.5499992  50.1320000 108.8990021  54.1899986  49.9949989 107.8199997
  53.5200005  49.3100014 109.8590012  52.8419991  51.5190010 109.1660004
  52.5629997  53.7709999 108.3420029  51.4720001  53.6769981 108.5260010
  53.0950012  52.4500008 108.0770035  53.3370018  52.1080017 110.5019989
  54.4469986  52.1329994 110.4720001  53.0499992  51.4280014 111.3330002
  52.8289986  53.4840012 110.7720032  51.7210007  53.4529991 110.8529968
  53.3499985  53.9480019 112.0169983  52.7519989  53.7200012 112.7320023
  53.1689987  54.3979988 109.6050034  52.6660004  55.3709984 109.7949982
  54.5760002  54.6500015 109.4660034  54.8959999  55.0779991 110.2639999
  52.7169991  54.6370010 107.0940018  53.7939987  54.6549988 106.8190002
  52.2809982  55.9850006 107.3580017  52.8219986  56.5559998 106.8069992
  51.9080009  54.0559998 105.9400024  52.1459999  52.9790001 105.8059998
  50.8260002  54.1209984 106.1869965  52.1520004  54.7480011 104.6999969
  52.8839989  54.3120003 104.2580032 129.6699982 111.2730026 104.6139984
 128.1750031 110.3270035 105.7320023 129.0989990 110.3199997 104.6289978
 129.8370056 109.4990005 104.7559967 128.3840027 110.1439972 103.2900009
 127.4430008 111.2119980 103.0970001 127.8410034 109.1760025 103.3430023
 126.5609970 110.8990021 102.0130005 126.1350021 109.8919983 102.2119980
 125.4520035 111.7730026 101.8509979 125.5279999 113.0619965 102.4820023
 125.9580002 112.9869995 103.5029984 124.4800034 113.3970032 102.6360016
 129.3170013 110.1240005 102.0719986 129.8040009 111.1230011 102.0370026
 130.2619934 109.0609970 102.2649994 131.9239960 109.2819977 102.1880035
 132.5299988 108.3300018 103.2289963 132.2599945 110.7419968 102.5250015
 132.3630066 108.8929977 100.7720032 128.5299988 109.9420013 100.7689972
 129.4129944 110.2180023  99.6679993 128.1679993 108.8919983 100.7789993
 129.3399963 109.4270020  98.5979996 128.6320038 108.4309998  98.4990005
 129.9559937 110.1250000  97.4020004 129.6239929 111.1859970  97.3769989
 129.5919952 109.6190033  96.4820023 127.2760010 110.8219986 100.6780014
 127.6159973 111.8550034 100.4520035 126.3320007 110.3919983  99.6449966
 125.5839996 109.8089981  99.9520035 125.7630005 114.3140030 100.2369995
 126.1060028 113.4179993  99.6770020 124.3369980 114.3679962 100.1200027
 123.9830017 115.1809998 100.4879990 126.2279968 114.1729965 101.6900024
 125.9420013 115.1119995 102.2099991 127.6679993 114.0739975 101.7969971
 128.3849945 115.1460037 101.1360016 129.4320068 114.7809982 101.0729980
 128.3020020 116.3399963 101.9120026 130.6289978 116.1520004 103.0360031
 130.2640076 117.8450012 101.1729965 129.1739960 118.1880035 103.4250031
 129.6640015 117.1579971 102.4029999 126.4349976 115.5439987  99.6579971
 126.2460022 116.3740005 100.3720016 125.8809967 116.0230026  98.4300003
 125.9749985 115.2819977  97.3339996 126.7149963 114.3290024  97.1780014
 125.2839966 116.0270004  96.2030029 126.0230026 116.1989975  95.3909988
 124.9250031 117.0130005  96.5660019 127.9270020 115.2870026  99.6809998
 128.0670013 114.2799988  99.2310028 128.7050018 116.2279968  98.8899994
 128.3320007 117.1460037  98.7779999 131.4770050 110.0500031  97.5019989
 131.7550049 110.3539963  98.5339966 132.0090027 110.9919968  96.5640030
 133.3009949 111.2649994  96.7020035 134.0130005 110.9110031  97.6289978
 133.8359985 112.0110016  95.4690018 134.8370056 111.5790024  95.2529984
 133.9700012 113.0800018  95.7389984 132.9470062 111.8720016  94.2129974
 132.0260010 112.4830017  94.3219986 132.6380005 110.8099976  94.1139984
 133.6790009 112.2610016  92.9229965 134.5590057 111.5930023  92.8050003
 134.0579987 113.3030014  93.0000000 132.8110046 112.1380005  91.6610031
 133.4779968 112.2559967  90.7799988 132.0700073 112.9660034  91.6309967
 132.0509949 110.8079987  91.5559998 131.2380066 110.7979965  92.3130035
 132.7409973 109.9690018  91.7919998 131.4389954 110.5550003  90.1750031
 130.9420013 111.4789963  89.8099976 130.6620026 109.7659988  90.2659988
 132.4819946 110.0889969  89.1539993 132.9700012 109.1620026  89.5230026
 133.2599945 110.8759995  89.0550003 131.8760071 109.8259964  87.7770004
 131.3690033 110.7580032  87.4459991 131.1040039 109.0299988  87.8479996
 132.9160004 109.4359970  86.7239990 133.3300018 108.4309998  86.9540024
 133.7449951 110.1740036  86.7639999 132.3200073 109.4550018  85.3130035
 131.8260040 110.4400024  85.1770020 131.5299988 108.6780014  85.2259979
 133.3480072 109.2870026  84.1900024 133.6439972 108.2190018  84.1129990
 134.2550049 109.8769989  84.4420013 132.8220062 109.7819977  82.8359985
 132.5670013 110.8590012  82.9339981 133.6340027 109.6959991  82.0830002
 131.5910034 109.0390015  82.3259964 131.2910004 109.4199982  81.3259964
 130.7330017 109.1740036  83.0189972 131.8000031 107.9520035  82.2330017
 132.0229950 108.6159973  97.2490005 131.3470001 107.8980026  97.7600021
 133.0030060 108.5500031  97.7689972 132.2630005 108.1650009  95.7860031
 132.6739960 107.1340027  95.8259964 133.0460052 108.8089981  95.3310013
 131.0469971 108.1500015  94.8410034 130.7089996 109.1930008  94.6589966
 130.2089996 107.6050034  95.3259964 131.3659973 107.4970016  93.4830017
 131.7819977 106.4810028  93.6539993 132.1519928 108.1039963  92.9869995
 130.1649933 107.3759995  92.5250015 129.4089966 106.6969986  92.9749985
 129.6950073 108.3750000  92.4020004 130.5619965 106.8379974  91.1350021
 131.1020050 105.8759995  91.2669983 131.2660065 107.5550003  90.6600037
 129.3829956 106.5999985  90.1729965 128.6920013 105.8629990  90.6360016
 128.8249969 107.5490036  90.0270004 129.8269958 106.0729980  88.7949982
 130.4459991 106.8460007  88.2929993 130.4649963 105.1770020  88.9509964
 128.6589966 105.6819992  87.8710022 128.0659943 106.5899963  87.6269989
 127.9970016 104.9860001  88.4300003 129.0809937 104.9710007  86.5709991
 129.6849976 104.0820007  86.8509979 128.1660004 104.5910034  86.0680008
 129.8820038 105.7910004  85.5609970 130.1920013 105.1409988  84.7160034
 129.2859955 106.6269989  85.1380005 130.7980042 106.2089996  86.0299988
 126.3359985 110.8389969  98.3820038 127.2509995 111.5309982  97.9509964
 125.1250000 110.4720001  97.5319977 124.3949966 109.9140015  98.1579971
 124.6470032 111.4100037  97.1780014 125.5559998 109.6019974  96.3300018
 126.1760025 108.7630005  96.7119980 126.2649994 110.4520035  95.4089966
 127.2710037 109.8820038  94.7440033 127.6100006 108.7109985  94.8580017
 128.2510071 110.9840012  94.2860031 129.0959930 110.4919968  93.7590027
 128.6439972 111.4660034  95.2070007 127.6119995 112.0579987  93.3769989
 128.0740051 113.0270004  93.6660004 126.5199966 112.1510010  93.5559998
 127.8990021 111.8529968  91.8870010 127.3410034 110.9700012  91.5080032
 128.9830017 111.6510010  91.7549973 127.5230026 113.1019974  91.0849991
 127.9789963 113.9850006  91.5810013 126.4209976 113.2330017  91.1230011
 127.9810028 113.1240005  89.6190033 127.4739990 112.3119965  89.0559998
 129.0720062 112.9189987  89.5759964 127.7239990 114.4680023  88.9079971
 128.2030029 115.2779999  89.4980011 126.6309967 114.6650009  88.8740005
 128.2819977 114.5250015  87.4769974 127.8180008 113.7190018  86.8700027
 129.3769989 114.3440018  87.5139999 128.0200043 115.8970032  86.8249969
 128.6089935 116.6630020  87.3720016 126.9420013 116.1480026  86.9250031
 128.3910065 115.9960022  85.3369980 128.1230011 117.0130005  84.9779968
 127.8050003 115.2669983  84.7379990 129.8840027 115.8130035  85.0510025
 130.4499969 116.5000000  85.7170029 130.1589966 114.7649994  85.2949982
 130.2489929 116.1179962  83.6019974 131.3339996 115.9499969  83.4300003
 130.0110016 117.1819992  83.3909988 129.6589966 115.4629974  82.9260025
 124.2860031 109.0090027  95.6589966 123.6610031 109.8539963  95.2979965
 123.7030029 108.4570007  96.4270020 124.5429993 108.0599976  94.4800034
 125.0940018 107.1529999  94.8079987 125.2060013 108.6110001  93.7799988
 123.2590027 107.6549988  93.7389984 122.5879974 108.5400009  93.7190018
 122.7289963 106.8560028  94.3000031 123.4670029 107.2249985  92.2710037
 122.4690018 107.1589966  91.7860031 123.9280014 106.2160034  92.2300034
 124.3470001 108.2129974  91.4899979 124.1220016 109.2330017  91.8700027
 125.4160004 108.0070038  91.7109985 124.1370010 108.2409973  89.9739990
 123.0680008 108.4710007  89.7789993 124.3690033 107.2509995  89.5279999
 125.0029984 109.3369980  89.3310013 126.0680008 109.0189972  89.3199997
 124.9369965 110.2419968  89.9729996 124.5759964 109.7590027  87.9179993
 124.7979965 108.9380035  87.2040024 123.4789963 109.9349976  87.9049988
 125.2779999 111.0469971  87.4639969 124.9680023 111.8860016  88.1230011
 126.3740005 110.9069977  87.5810013 124.9919968 111.4120026  86.0070038
 125.2129974 110.5230026  85.3779984 123.9049988 111.6190033  85.9000015
 125.7850037 112.5930023  85.4520035 125.6340027 113.4940033  86.0839996
 126.8710022 112.3600006  85.4270020 125.4459991 112.8229980  84.4199982
 124.0899963 115.2210007  95.6660004 123.5510025 115.8779984  94.9499969
 123.1780014 114.9219971  96.7190018 123.4629974 114.2679977  97.3619995
 124.4759979 113.9469986  94.8789978 125.0339966 113.2350006  95.5240021
 125.1549988 114.2580032  94.0550003 123.2659988 113.2249985  94.2620010
 122.5699997 113.9899979  93.8550034 122.7269974 112.6770020  95.0650024
 123.5960007 112.2500000  93.1240005 124.3219986 111.4820023  93.4649963
 124.0839996 112.8239975  92.3069992 122.3320007 111.5500031  92.6009979
 121.4440002 112.0999985  92.9820023 122.2799988 110.5309982  93.0419998
 122.1869965 111.4449997  91.0749969 122.9759979 110.7669983  90.6839981
 121.2040024 110.9749985  90.8590012 122.2689972 112.7740021  90.3079987
 123.3239975 113.1240005  90.3089981 121.6409988 113.5449982  90.8020020
 121.8119965 112.6070023  88.8539963 120.7050018 112.5179977  88.8229980
 122.2369995 111.6579971  88.4619980 122.2659988 113.7269974  87.9089966
 121.8710022 114.7080002  88.2490005 123.3759995 113.7689972  87.9339981
 121.8229980 113.4670029  86.4639969 122.0049973 112.3939972  86.2399979
 120.7279968 113.6340027  86.3820038 122.5500031 114.2969971  85.4049988
 122.3659973 115.3759995  85.5930023 123.6409988 114.1250000  85.5260010
 122.1510010 113.9349976  83.9749985 122.3410034 112.8560028  83.7910004
 122.7389984 114.5299988  83.2440033 121.0699997 114.1399994  83.8180008
 129.8359985 115.8629990  98.2580032 130.3789978 114.7799988  98.4840012
 130.3950043 116.8460007  97.2320023 131.2920074 117.3509979  97.6500015
 129.6199951 117.6159973  97.0289993 130.7310028 116.1169968  95.9140015
 129.9459991 115.3600006  95.7009964 132.0000000 115.4810028  96.0299988
 132.2270050 114.8970032  95.3030014 130.7779999 117.0910034  94.7160034
 131.6360016 117.7850037  94.8379974 129.8489990 117.6999969  94.7310028
 130.8609924 116.3860016  93.3489990 130.0000000 115.6910019  93.2570038
 131.7910004 115.7809982  93.2880020 130.8260040 117.3690033  92.1689987
 131.7559967 117.9779968  92.1579971 129.9720001 118.0630035  92.3199997
 130.6390076 116.6790009  90.8089981 130.4089966 117.4459991  90.0390015
 129.7619934 116.0000000  90.8769989 131.8520050 115.8639984  90.3330002
 132.7209930 116.5400009  90.1849976 132.1260071 115.1210022  91.1119995
 131.5509949 115.1100006  89.0309982 131.1840057 115.8379974  88.2760010
 130.7310028 114.3860016  89.2229996 132.7460022 114.3590012  88.4329987
 133.5890045 115.0749969  88.3349991 133.0659943 113.5410004  89.1139984
 132.4299927 113.7929993  87.0419998 131.6999969 112.9589996  87.1179962
 131.9490051 114.6090012  86.4619980 133.6719971 113.3450012  86.2630005
 134.4649963 114.1090012  86.4069977 134.0489960 112.3820038  86.6679993
 133.4089966 113.2109985  84.7580032 132.6719971 112.3949966  84.5989990
 132.9400024 114.1490021  84.3909988 134.6730042 112.9290009  83.9459991
 134.4340057 112.8639984  82.8629990 135.4259949 113.7289963  84.1090012
 135.1199951 111.9619980  84.2620010 129.0379944 108.3489990 106.9280014
 130.0180054 107.9270020 107.6039963 128.0980072 107.6409988 106.4649963
 128.7760010 109.9110031 106.9629974 129.7790070 112.0459976 107.4250031
 129.2870026 112.4300003 106.5059967 130.0079956 110.6289978 107.2549973
 127.7180023 110.2089996 108.0429993 128.0540009 109.7379990 108.9909973
 126.7639999 109.7190018 107.7529984 127.4940033 111.6709976 108.2890015
 127.0920029 112.1129990 107.3529968 126.5479965 111.8339996 109.3600006
 128.8209991 112.3440018 108.5820007 128.6499939 113.4420013 108.5989990
 129.3619995 111.9660034 109.8539963 128.7489929 112.2310028 110.5439987
 131.1119995 112.7779999 107.5459976 131.6089935 112.4589996 108.4860001
 130.8999939 114.2030029 107.5869980 131.7539978 114.5849991 107.3720016
 132.0249939 112.4449997 106.3710022 132.1600037 111.3450012 106.3010025
 131.5559998 112.7860031 105.4240036 133.3229980 113.0530014 106.5299988
 133.8229980 112.8750000 105.7300034 126.0279999 114.1600037 108.7639999
 125.7040024 114.6900024 107.6660004 126.6669998 114.7149963 109.7030029
 125.4649963 112.7190018 109.0810013 124.0309982 110.9440002 108.2990036
 124.8489990 110.2350006 108.5500031 124.6309967 112.2269974 107.9940033
 124.6660004 112.7409973 110.3980026 123.8929977 113.5339966 110.3130035
 125.3399963 113.0309982 111.2320023 123.9980011 111.4420013 110.7099991
 124.7779999 110.6620026 110.8470001 123.2740021 111.5589981 111.9339981
 123.8339996 111.3089981 112.6719971 123.1269989 111.0090027 109.5380020
 122.7580032 109.9840012 109.7570038 121.9850006 111.8529968 109.3310013
 121.4189987 111.8059998 110.1050034 123.3379974 110.3669968 107.0670013
 122.4800034 111.0189972 106.7990036 122.8529968 109.0390015 107.3489990
 122.6669998 108.6569977 106.4879990 124.2990036 110.2990036 105.8830032
 124.7210007 111.3069992 105.6829987 125.1490021 109.6269989 106.1259995
 123.6419983 109.8259964 104.6910019 123.7099991 110.5159988 104.0270004
 133.8739929  98.7399979 104.2959976 132.1589966  98.2239990 105.3779984
 133.0679932  97.9749985 104.2870026 133.5489960  96.9800034 104.4039993
 132.3450012  98.0059967 102.9430008 131.6410065  99.2519989 102.8420029
 131.6130066  97.1709976 102.9530029 130.6979980  99.2109985 101.7720032
 130.0879974  98.2900009 101.8970032 129.7740021 100.2939987 101.7419968
 130.1239929 101.4680023 102.4980011 130.5189972 101.2009964 103.5019989
 129.1809998 102.0210037 102.6969986 133.2400055  97.8550034 101.6999969
 133.9600067  98.7020035 101.6999969 133.9010010  96.5800018 101.7340012
 135.5630035  96.3809967 101.8809967 135.9660034  96.6979980 103.3259964
 136.2700043  97.3069992 100.8820038 135.8240051  94.9039993 101.5550003
 132.3899994  97.9459991 100.4160004 133.2769928  98.0250015  99.2819977
 131.7729950  97.0210037 100.4100037 132.9479980  97.3229980  98.1940002
 131.9880066  96.5660019  98.1070023 133.7590027  97.7720032  96.9899979
 133.6640015  98.8730011  96.8779984 133.3320007  97.2900009  96.0849991
 131.3829956  99.1090012 100.4229965 131.9559937 100.0500031 100.2779999
 130.3580017  99.0299988  99.3830032 129.4629974  98.7040024  99.6760025
 130.5570068 102.8759995 100.4199982 130.4920044 101.9660034  99.7870026
 129.2449951 103.4489975 100.4950027 129.2480011 104.2730026 100.9869995
 131.0690002 102.4420013 101.7949982 131.0970001 103.3580017 102.4229965
 132.4199982 101.9240036 101.8180008 133.3849945 102.6460037 101.0189972
 134.1710052 101.8919983 100.8010025 133.9230042 103.7340012 101.7679977
 135.7850037 102.5169983 103.0989990 136.3939972 103.8209991 101.0019989
 135.6609955 105.0410004 103.0830002 135.5140076 103.7610016 102.2509995
 131.5679932 103.8310013  99.8280029 131.7779999 104.5910034 100.6100006
 131.1589966 104.6080017  98.6959991 130.6080017 103.9850006  97.6520004
 130.6600037 102.7850037  97.4440002 130.3549957 105.0410004  96.5800018
 131.0290070 104.8489990  95.7190018 130.5870056 106.0459976  96.9940033
 132.8379974 103.0360031  99.6439972 132.5350037 102.0889969  99.1480026
 133.8200073 103.6610031  98.7819977 133.7550049 104.6480026  98.6589966
 135.2290039  97.3929977  97.1780014 135.5559998  97.8150024  98.1520004
 135.9440002  98.0319977  96.1139984 137.2619934  98.0250015  96.2020035
 137.9160004  97.6949997  97.1839981 137.8979950  98.4010010  94.8509979
 138.6239929  97.5979996  94.5999985 138.4609985  99.3479996  94.9980011
 136.8899994  98.5609970  93.6890030 136.2070007  99.4130020  93.8980026
 136.2740021  97.6409988  93.6070023 137.5740051  98.7910004  92.3389969
 138.1390076  97.8740005  92.0650024 138.3079987  99.6190033  92.4359970
 136.6069946  99.1360016  91.1930008 137.2079926  99.2070007  90.2620010
 136.1600037 100.1370010  91.3759995 135.4709930  98.1230011  90.9789963
 134.7559967  98.2119980  91.8249969 135.8849945  97.0920029  91.0039978
 134.7050018  98.3160019  89.6579971 134.4290009  99.3860016  89.5449982
 133.7680054  97.7210007  89.7060013 135.4969940  97.8450012  88.4260025
 135.7209930  96.7639999  88.5459976 136.4649963  98.3889999  88.3870010
 134.7790070  98.0520020  87.0849991 134.6060028  99.1380005  86.9290009
 133.7920074  97.5429993  87.1190033 135.5879974  97.4909973  85.9059982
 135.7760010  96.4110031  86.0859985 136.5709991  98.0090027  85.8769989
 134.9109955  97.6389999  84.5370026 134.7120056  98.7149963  84.3410034
 133.9380035  97.1039963  84.5550003 135.7720032  97.0839996  83.3909988
 136.0059967  96.0179977  83.5989990 136.7339935  97.6389999  83.3730011
 135.1280060  97.1829987  82.0009995 134.7559967  98.2190018  81.8539963
 135.9210052  97.0059967  81.2429962 133.9909973  96.1949997  81.7549973
 133.5910034  96.3089981  80.7249985 133.1640015  96.3570023  82.4800034
 134.3500061  95.1510010  81.8759995 135.4779968  95.8519974  97.2170029
 134.6069946  95.3659973  97.7060013 136.3549957  95.6869965  97.8789978
 135.7779999  95.1309967  95.8830032 135.8970032  94.0459976  96.0940018
 136.7510071  95.4879990  95.4810028 134.7160034  95.3010025  94.7890015
 134.6000061  96.3799973  94.5510025 133.7409973  94.9300003  95.1699982
 135.0890045  94.5699997  93.4919968 135.1560059  93.4779968  93.6859970
 136.0939941  94.9209976  93.1729965 134.1109924  94.8229980  92.3389969
 133.1009979  94.4459991  92.6060028 134.0209961  95.9169998  92.1699982
 134.5700073  94.1600037  91.0350037 134.6670074  93.0650024  91.1940002
 135.5729980  94.5609970  90.7740021 133.6190033  94.4219971  89.8629990
 132.6170044  94.0009995  90.0930023 133.5050049  95.5210037  89.7460022
 134.1230011  93.8410034  88.5400009 135.1519928  94.2190018  88.3580017
 134.1750031  92.7340012  88.6230011 133.2510071  94.2170029  87.3369980
 133.1289978  95.3209991  87.3089981 132.2420044  93.7669983  87.4580002
 133.8560028  93.7590027  86.0070038 134.8609924  94.2220001  85.9020004
 133.9960022  92.6579971  86.0439987 133.0319977  94.0950012  84.7779999
 133.5429993  93.7099991  83.8690033 132.0240021  93.6330032  84.8410034
 132.9170074  95.1959991  84.6740036 130.4839935  99.5419998  98.1490021
 131.5670013  99.9169998  97.7089996 129.1790009  99.6750031  97.3659973
 128.4290009  98.9800034  97.8000031 128.8059998 100.7139969  97.4850006
 129.3520050  99.3389969  95.8690033 129.7709961  98.3130035  95.7900009
 130.1629944 100.3499985  95.2509995 131.2180023  99.9150009  94.5650024
 131.5350037  98.7409973  94.4110031 132.1679993 101.0910034  94.3059998
 133.1799927 100.6839981  94.0989990 132.2230072 101.6959991  95.2360001
 131.6849976 101.9720001  93.1399994 132.2270050 102.9400024  93.2070007
 130.6009979 102.1940002  93.2369995 131.9779968 101.3809967  91.7539978
 131.3379974 100.4919968  91.5690002 133.0370026 101.0479965  91.7279968
 131.7799988 102.4120026  90.6299973 132.3130035 103.3410034  90.9260025
 130.7030029 102.6620026  90.5240021 132.3489990 101.9639969  89.2760010
 131.7079926 101.1709976  88.8349991 133.3560028 101.5279999  89.4509964
 132.5189972 103.1200027  88.2779999 133.0980072 103.9160004  88.7929993
 131.5310059 103.5419998  87.9970016 133.2850037 102.7099991  87.0130005
 132.6119995 102.1829987  86.3030014 134.0599976 101.9769974  87.3249969
 134.0209961 103.8710022  86.3199997 134.8769989 103.4380035  85.7590027
 134.4400024 104.5520020  87.0910034 133.1759949 104.6719971  85.3300018
 133.2749939 105.7590027  85.5370026 132.1109924 104.3889999  85.4759979
 133.5679932 104.4010010  83.8750000 134.6260071 104.7020035  83.7210007
 133.5070038 103.3040009  83.7070007 132.6840057 105.1019974  82.8489990
 132.7559967 106.2030029  82.9729996 133.0039978 104.8379974  81.8190002
 131.6250000 104.7949982  82.9830017 127.9670029  99.3450012  95.1729965
 127.5220032 100.3550034  95.3030014 127.3069992  98.6119995  95.6829987
 128.0169983  99.0179977  93.6719971 128.3899994  97.9800034  93.5329971
 128.7510071  99.7050018  93.1999969 126.6660004  99.1770020  92.9580002
 126.3069992 100.2170029  93.1080017 125.9209976  98.4919968  93.4169998
 126.7210007  98.9140015  91.4410019 125.7149963  99.1070023  91.0130005
 126.9670029  97.8470001  91.2570038 127.7440033  99.7969971  90.7109985
 127.5749969 100.8539963  91.0059967 128.7669983  99.5139999  91.0400009
 127.6829987  99.7030029  89.1829987 126.6979980 100.0830002  88.8369980
 127.7669983  98.6399994  88.8700027 128.8049927 100.5120010  88.5199966
 129.7689972  99.9950027  88.7129974 128.8650055 101.5139999  88.9960022
 128.6239929 100.7129974  87.0110016 128.3049927  99.7600021  86.5380020
 127.8190002 101.4609985  86.8470001 129.9029999 101.1930008  86.3150024
 130.3480072 102.0289993  86.8949966 130.6349945 100.3570023  86.3140030
 129.6719971 101.6679993  84.8779984 129.1750031 102.6610031  84.9079971
 128.9589996 100.9670029  84.3939972 130.9299927 101.7500000  84.0179977
 131.6309967 102.5029984  84.4359970 131.4409943 100.7639999  83.9769974
 130.6710052 102.0569992  82.9820023 128.8919983 105.0469971  96.1110001
 128.7160034 106.0110016  95.5869980 128.0079956 104.9820023  97.2289963
 127.8720016 105.8079987  97.6979980 128.5639954 103.9400024  95.0839996
 128.6909943 102.9339981  95.5370026 129.2920074 104.0360031  94.2509995
 127.1470032 104.0770035  94.4980011 126.9540024 105.1520004  94.2959976
 126.4150009 103.7470016  95.2659988 126.9110031 103.3010025  93.1949997
 127.1539993 102.2279968  93.3519974 127.5910034 103.6910019  92.4069977
 125.4550018 103.4380035  92.7200012 125.2190018 104.5189972  92.6100006
 124.7969971 103.0309982  93.5169983 125.1100006 102.7229996  91.4010010
 125.4349976 101.6620026  91.4560013 124.0039978 102.7300034  91.2959976
 125.6989975 103.3710022  90.1380005 126.8010025 103.2300034  90.1299973
 125.4960022 104.4629974  90.1520004 125.1029968 102.7740021  88.8529968
 124.0039978 102.9339981  88.8479996 125.2829971 101.6780014  88.8629990
 125.7060013 103.3479996  87.5630035 125.5049973 104.4390030  87.5080032
 126.8079987 103.2119980  87.5989990 125.1740036 102.6610031  86.2969971
 125.3290024 101.5660019  86.4020004 124.0820007 102.8430023  86.2070007
 125.8769989 103.1190033  85.0139999 125.7429962 104.2149963  84.8939972
 126.9660034 102.9290009  85.1279984 125.3789978 102.4029999  83.7570038
 125.5299988 101.3069992  83.8580017 125.9359970 102.7519989  82.8610001
 124.2979965 102.5999985  83.5979996 134.7779999 102.9420013  98.1719971
 134.9010010 101.7279968  98.3450012 135.6869965 103.7119980  97.2320023
 136.7319946 103.6849976  97.6090012 135.3540039 104.7710037  97.1999969
 135.5769958 103.1009979  95.8270035 134.5420074 102.7419968  95.6449966
 136.4949951 102.0179977  95.7060013 136.4309998 101.5220032  94.8870010
 135.8950043 104.1490021  94.7480011 136.9770050 104.4020004  94.7809982
 135.3249969 105.0749969  94.9729996 135.5059967 103.6930008  93.3359985
 134.4179993 103.4700012  93.3020020 136.0500031 102.7549973  93.0950012
 135.8339996 104.7580032  92.2880020 136.9239960 104.9649963  92.3379974
 135.2989960 105.6989975  92.5390015 135.4739990 104.3430023  90.8570023
 135.8489990 105.1269989  90.1650009 134.3699951 104.3030014  90.7409973
 136.0610046 102.9840012  90.4449997 136.9940033 102.7929993  91.0169983
 135.3370056 102.1849976  90.7160034 136.3639984 102.9189987  88.9459991
 137.0930023 103.7089996  88.6660004 135.4129944 103.1620026  88.4260025
 136.8419952 101.5500031  88.4580002 137.7749939 101.2450027  88.9759979
 136.0630035 100.8059998  88.7289963 137.0509949 101.4570007  86.9380035
 137.2700043 100.3939972  86.7009964 136.0989990 101.7089996  86.4229965
 138.1790009 102.3249969  86.3580017 138.8650055 102.6650009  87.1630020
 138.7680054 101.6839981  85.6689987 137.6459961 103.5120010  85.5419998
 136.9179993 103.1080017  84.8059998 137.0850067 104.1989975  86.2109985
 138.7149963 104.2959976  84.7779999 138.2420044 105.1139984  84.1940002
 139.4510040 104.7450027  85.4789963 139.2469940 103.6240005  84.0709991
 132.4389954  96.0449982 106.5019989 133.2630005  95.3570023 107.1709976
 131.4109955  95.6090012 105.9100037 132.5760040  97.6230011 106.6090012
 134.0749969  99.4020004 107.2249985 133.7310028  99.9469986 106.3199997
 133.9420013  97.9840012 106.9749985 131.5659943  98.1439972 107.6549988
 131.6920013  97.5299988 108.5719986 130.5330048  97.9670029 107.2860031
 131.7319946  99.5889969 108.0240021 131.4810028 100.1989975 107.1299973
 130.8289948  99.8990021 109.0989990 133.1829987  99.8629990 108.3820038
 133.3079987 100.9639969 108.4670029 133.5659943  99.2829971 109.6360016
 133.0460052  99.6900024 110.3330002 135.5449982  99.7679977 107.4270020
 135.9219971  99.2320023 108.3239975 135.6959991 101.1859970 107.6360016
 136.6139984 101.3720016 107.4229965 136.3789978  99.3580017 106.2200012
 136.2169952  98.2839966 105.9869995 136.0509949  99.9380035 105.3320007
 137.7859955  99.5820007 106.4499969 138.1660004  98.7580032 106.7649994
 131.1529999 102.3399963 108.9509964 131.1609955 103.0599976 107.9150009
 131.8339996 102.5289993 109.9990005 130.1289978 101.1380005 109.0090027
 128.1790009 100.1800003 107.9420013 128.6779938  99.1869965 107.9759979
 129.2180023 101.1869965 107.8720016 129.3390045 101.1800003 110.3320007
 128.8860016 102.1900024 110.4280014 130.0410004 101.0569992 111.1849976
 128.2630005 100.1500015 110.4059982 128.7160034  99.1370010 110.3399963
 127.5910034 100.2539978 111.6600037 128.0570068  99.7460022 112.3270035
 127.3310013 100.3030014 109.2160034 126.6149979  99.4540024 109.2419968
 126.5699997 101.5210037 109.2440033 126.0329971 101.5339966 110.0400009
 127.3349991 100.2109985 106.6689987 126.8270035 101.1969986 106.6060028
 126.3320007  99.1780014 106.6930008 126.1429977  99.0080032 105.7669983
 128.1999969 100.0299988 105.4290009 129.0050049 100.7959976 105.4179993
 128.6880035  99.0319977 105.4509964 127.4150009 100.1719971 104.2279968
 127.9879990  99.9749985 103.4830017 115.9260025  41.3349991 104.5080032
 114.3079987  40.8269997 105.7360001 115.1559982  40.5400009 104.6070023
 115.6920013  39.5779991 104.7559967 114.3430023  40.4490013 103.3140030
 113.6800003  41.6980019 103.0950012 113.5780029  39.6590004 103.4700012
 112.7190018  41.5680008 102.0419998 112.1529999  40.6240005 102.1920013
 111.7429962  42.5950012 101.9850006 111.9779968  43.7500000 102.8089981
 112.4520035  43.4959984 103.7809982 110.9850006  44.1749992 103.0690002
 115.1740036  40.1139984 102.0619965 116.0049973  40.8520012 102.0400009
 115.6500015  38.7760010 102.2549973 117.1800003  38.2439995 101.8590012
 117.3990021  36.9819984 102.7020035 118.1900024  39.3380013 102.2300034
 117.1849976  37.9099998 100.3639984 114.3730011  40.2519989 100.7529984
 115.3030014  40.2859993  99.6559982 113.7060013  39.3639984 100.7300034
 115.0579987  39.4889984  98.6070023 114.0660019  38.7750015  98.5009995
 115.7969971  40.0349998  97.3880005 116.1650009  41.0589981  97.6149979
 115.0690002  40.1049995  96.5510025 113.4260025  41.4599991 100.7070007
 114.0339966  42.3810005 100.5759964 112.4530029  41.3989983  99.6139984
 111.5400009  41.0870018  99.8669968 112.1809998  45.1839981 100.7269974
 112.2860031  44.2709999 100.1029968 110.7870026  45.5120010 100.7870026
 110.6350021  46.3310013 101.2649994 112.7600021  44.8479996 102.0960007
 112.6740036  45.7599983 102.7239990 114.1679993  44.5190010 102.0400009
 114.9909973  45.4889984 101.3519974 115.9380035  44.9469986 101.1389999
 115.2160034  46.6100006 102.2020035 117.5640030  45.8950005 103.0169983
 117.3410034  47.8149986 101.3649979 116.5759964  48.0999985 103.7509995
 116.7490005  47.1160011 102.5889969 113.0000000  46.2999992 100.1240005
 113.0210037  47.1209984 100.8720016 112.4710007  46.9029999  98.9420013
 112.1569977  46.1189995  97.9160004 112.4589996  44.9469986  97.7929993
 111.7600021  47.0180016  96.7610016 112.4250031  46.8059998  95.8970032
 111.9000015  48.0779991  97.0640030 114.4209976  45.8160019  99.9739990
 114.3570023  44.8440018  99.4400024 115.2490005  46.7099991  99.1849976
 115.0479965  47.6839981  99.2559967 116.9520035  39.0909996  97.0319977
 117.5780029  38.9589996  97.9400024 117.7369995  39.6529999  95.9739990
 118.4309998  40.7430000  96.2570038 118.6640015  41.1679993  97.3789978
 119.1650009  41.2010002  94.9919968 119.5830002  40.3040009  94.4860001
 120.0090027  41.8540001  95.3030014 118.2320023  41.9630013  94.0250015
 117.8929977  42.9109993  94.4950027 117.3310013  41.3440018  93.8270035
 118.9150009  42.2739983  92.6849976 119.2099991  41.3129997  92.2109985
 119.8440018  42.8530006  92.8730011 118.0390015  43.0509987  91.6849976
 118.6200027  43.1619987  90.7450027 117.8389969  44.0750008  92.0670013
 116.6999969  42.3670006  91.3659973 115.9049988  42.8219986  91.9960022
 116.7610016  41.2919998  91.6419983 116.2870026  42.4339981  89.8870010
 116.3170013  43.4830017  89.5230026 115.2360001  42.0810013  89.8150024
 117.1490021  41.5349998  88.9869995 117.2890015  40.5589981  89.5000000
 118.1520004  41.9930000  88.8539963 116.5260010  41.2540016  87.6129990
 116.4250031  42.2080002  87.0540009 115.5059967  40.8370018  87.7559967
 117.3600006  40.2639999  86.7880020 117.4209976  39.3009987  87.3379974
 118.3899994  40.6669998  86.6859970 116.7939987  40.0040016  85.3870010
 116.7330017  40.9710007  84.8440018 115.7630005  39.6010017  85.4840012
 117.6490021  39.0270004  84.5650024 117.5950012  38.0209999  85.0339966
 118.7070007  39.3639984  84.6070023 117.2369995  38.9259987  83.0879974
 117.3799973  39.9259987  82.6240005 117.9300003  38.2270012  82.5729980
 115.7939987  38.4760017  82.8519974 115.0849991  39.1959991  83.3140030
 115.6190033  37.4749985  83.3020020 115.5749969  38.4199982  81.7649994
 116.4879990  37.6769981  96.5800018 115.5439987  37.3899994  97.0920029
 117.2699966  36.9720001  96.9329987 116.3440018  37.4440002  95.0579987
 116.1480026  36.3639984  94.8830032 117.3209991  37.6720009  94.5810013
 115.2549973  38.2519989  94.3280029 115.3320007  39.3260002  94.6029968
 114.2490005  37.8870010  94.6230011 115.4479980  38.1570015  92.8069992
 115.5550003  37.0870018  92.5240021 116.4079971  38.6599998  92.5630035
 114.3440018  38.7789993  91.9339981 113.4440002  38.1279984  91.9759979
 114.0630035  39.7840004  92.3180008 114.8339996  38.9140015  90.4830017
 115.6060028  38.1279984  90.3420029 115.3570023  39.8860016  90.3499985
 113.8010025  38.7179985  89.3610001 112.9629974  38.0890007  89.7289963
 113.3909988  39.7060013  89.0599976 114.4550018  38.0190010  88.1569977
 115.3379974  38.6030006  87.8209991 114.8310013  37.0460014  88.5400009
 113.5830002  37.6860008  86.9420013 113.4800034  38.5950012  86.3119965
 112.5719986  37.3650017  87.2730026 114.2099991  36.5880013  86.0709991
 115.2279968  36.9220009  85.7770004 114.3229980  35.6679993  86.6829987
 113.4049988  36.2680016  84.8109970 113.9049988  35.4749985  84.2160034
 112.3850021  35.9189987  85.0800018 113.3059998  37.1749992  84.1780014
 112.6800003  41.7229996  98.3259964 113.7500000  42.1819992  97.9349976
 111.5100021  41.4519997  97.3850021 111.0380020  40.4959984  97.6979980
 110.7649994  42.2680016  97.4919968 111.9449997  41.3190002  95.9069977
 112.8050003  40.6170006  95.8519974 112.2279968  42.6240005  95.3809967
 113.2799988  42.7000008  94.5699997 114.0999985  41.8149986  94.3730011
 113.4589996  44.1559982  94.1159973 114.5299988  44.3199997  93.8710022
 113.1890030  44.8149986  94.9690018 112.5650024  44.4739990  92.9010010
 112.4000015  45.5719986  92.8750000 111.5699997  43.9930000  93.0110016
 113.1930008  44.0719986  91.5599976 113.3629990  42.9739990  91.5240021
 114.1859970  44.5639992  91.4810028 112.3430023  44.4990005  90.3529968
 111.9010010  45.4959984  90.5660019 111.5049973  43.7830009  90.2160034
 113.1549988  44.6180000  89.0550003 113.5759964  43.6259995  88.7860031
 114.0090027  45.3019981  89.2460022 112.3450012  45.1669998  87.8690033
 111.7639999  46.0509987  88.2080002 111.6179962  44.3959999  87.5339966
 113.2300034  45.5849991  86.6839981 113.8199997  44.7099991  86.3349991
 113.9479980  46.3470001  87.0550003 112.4629974  46.1819992  85.4899979
 113.1340027  46.9090004  84.9860001 111.5680008  46.7369995  85.8460007
 112.0520020  45.1500015  84.4290009 111.3030014  44.4449997  84.8479996
 112.9580002  44.5610008  84.1689987 111.5039978  45.7639999  83.1340027
 110.4270020  45.9949989  83.2770004 112.0360031  46.7239990  82.9599991
 111.7009964  44.8959999  81.8929977 111.2590027  45.3820000  80.9970016
 112.7850037  44.7290001  81.7119980 111.2279968  43.9020004  82.0380020
 110.7649994  40.7150002  95.1019974 109.8830032  41.3740005  95.2460022
 110.5159988  39.7239990  95.5400009 110.9879990  40.5320015  93.5899963
 111.8150024  39.8100014  93.4219971 111.2890015  41.5019989  93.1409988
 109.7160034  40.0410004  92.8809967 108.9280014  40.8199997  92.9739990
 109.3460007  39.1310005  93.4000015 109.9010010  39.7000008  91.3949966
 108.9369965  39.3199997  90.9929962 110.6500015  38.8849983  91.3030014
 110.3539963  40.8800011  90.5240021 109.6299973  41.7190018  90.6039963
 111.3359985  41.2430000  90.8960037 110.5179977  40.4840012  89.0520020
 109.5279999  40.2770004  88.5920029 111.1070023  39.5429993  89.0189972
 111.2740021  41.5320015  88.2289963 112.1539993  41.8610001  88.8229980
 110.6360016  42.4239998  88.0520020 111.8010025  40.9790001  86.9010010
 112.3450012  40.0400009  87.1409988 110.9520035  40.7179985  86.2350006
 112.7799988  41.9220009  86.1920013 112.2600021  42.8820000  85.9840012
 113.6139984  42.1370010  86.8939972 113.3710022  41.3759995  84.8840027
 113.7740021  40.3580017  85.0719986 114.2289963  42.0260010  84.6080017
 112.4029999  41.3339996  83.7020035 111.5309982  40.6860008  83.9309998
 112.0240021  42.3559990  83.4860001 112.9110031  40.9440002  82.7939987
 110.2939987  46.7820015  96.3740005 110.0410004  47.5359993  95.5979996
 109.4390030  47.0159988  97.4889984 109.3570023  46.2919998  98.1139984
 110.0240021  45.3950005  95.7570038 110.1930008  44.5849991  96.4990005
 110.7669983  45.2560005  94.9430008 108.6240005  45.2500000  95.1419983
 108.3499985  46.2169991  94.6679993 107.8779984  45.0410004  95.9380035
 108.5680008  44.1660004  94.0579987 108.8349991  43.1730003  94.4779968
 109.3420029  44.4199982  93.3030014 107.1989975  44.0919991  93.3700027
 106.7720032  45.1170006  93.3270035 106.5139999  43.4739990  93.9879990
 107.2399979  43.5519981  91.9300003 107.6500015  42.5200005  91.9209976
 106.1930008  43.5040016  91.5609970 108.0550003  44.4339981  90.9710007
 109.1299973  44.1640015  91.0479965 107.9509964  45.4920006  91.2939987
 107.5940018  44.3489990  89.5100021 106.5189972  44.6250000  89.4670029
 107.6979980  43.3059998  89.1419983 108.3850021  45.2900009  88.5889969
 108.4599991  46.2900009  89.0670013 109.4179993  44.8969994  88.4729996
 107.7490005  45.4659996  87.2040024 107.5950012  44.4620018  86.7539978
 106.7519989  45.9440002  87.3109970 108.6149979  46.2980003  86.2490005
 108.7809982  47.3019981  86.6959991 109.6060028  45.8040009  86.1660004
 108.0380020  46.4539986  84.8450012 108.6979980  47.0950012  84.2220001
 107.0279999  46.9160004  84.8850021 107.9530029  45.4580002  84.3590012
 116.1949997  46.2729988  98.3389969 116.5500031  45.0940018  98.3109970
 116.7750015  47.3110008  97.3860016 117.7750015  47.6360016  97.7460022
 116.1039963  48.1949997  97.3730011 116.8570023  46.7270012  95.9609985
 116.0230026  46.0130005  95.7929993 118.1039963  46.0540009  95.7969971
 118.1940002  45.5470009  94.9860001 116.7340012  47.8300018  94.8889999
 117.6060028  48.5149994  94.9550018 115.8229980  48.4239998  95.1129990
 116.6019974  47.2830009  93.4580002 115.7649994  46.5519981  93.4280014
 117.5350037  46.7410011  93.1930008 116.3330002  48.3790016  92.4169998
 117.1839981  49.0929985  92.4029999 115.4250031  48.9399986  92.7229996
 116.1070023  47.8170013  91.0039978 115.7900009  48.6440010  90.3339996
 115.2799988  47.0769997  91.0419998 117.3489990  47.1440010  90.3990021
 118.1650009  47.8919983  90.3040009 117.7009964  46.3400002  91.0800018
 117.0719986  46.5050011  89.0339966 116.7310028  47.2809982  88.3160019
 116.2500000  45.7669983  89.1520004 118.2959976  45.7779999  88.4619980
 119.0989990  46.5169983  88.2549973 118.6729965  45.0620003  89.2229996
 117.9749985  45.0000000  87.1809998 117.1849976  44.2540016  87.4100037
 117.5699997  45.7010002  86.4199982 119.1880035  44.2700005  86.5920029
 119.9629974  45.0200005  86.3219986 119.6129990  43.5929985  87.3629990
 118.8339996  43.4469986  85.3489990 118.0599976  42.7000008  85.6269989
 118.3759995  44.1199989  84.5940018 120.0270004  42.7249985  84.7239990
 119.7020035  42.1629982  83.8229980 120.8050003  43.4609985  84.4290009
 120.4680023  42.0070000  85.4479980 114.9140015  38.8419991 107.0650024
 115.8860016  38.3269997 107.6859970 113.8519974  38.2449989 106.7259979
 114.8720016  40.4230003 106.9869995 116.1829987  42.4150009 107.3259964
 115.7239990  42.8409996 106.4079971 116.2020035  40.9749985 107.1949997
 113.8799973  40.9370003 108.0520020 114.1370010  40.4440002 109.0139999
 112.8560028  40.6040001 107.7799988 113.8970032  42.4210014 108.2720032
 113.5260010  42.9099998 107.3470001 113.0339966  42.7360001 109.3799973
 115.3229980  42.8759995 108.5070038 115.3280029  43.9869995 108.5080032
 115.8420029  42.4370003 109.7689972 115.3150024  42.8260002 110.4710007
 117.6159973  42.9379997 107.3929977 118.1029968  42.5149994 108.2969971
 117.6320038  44.3759995 107.4869995 118.5169983  44.6320000 107.2160034
 118.4079971  42.5149994 106.1620026 118.3450012  41.4140015 106.0250015
 117.9660034  42.9850006 105.2580032 119.7959976  42.8940010 106.2689972
 120.2959976  42.1129990 106.5199966 112.9540024  45.1520004 108.9110031
 112.6809998  45.7999992 107.8629990 113.7170029  45.5299988 109.8450012
 112.1409988  43.8289986 109.1890030 110.3629990  42.4119987 108.3830032
 111.0339966  41.5410004 108.5410004 111.1890030  43.5709991 108.1210022
 111.4049988  43.9319992 110.5390015 110.7959976  44.8610001 110.5240021
 112.1510010  44.0439987 111.3550034 110.5130005  42.7669983 110.8199997
 111.1330032  41.8470001 110.8899994 109.8649979  42.9560013 112.0770035
 110.3889999  42.5649986 112.7789993 109.5370026  42.5690002 109.6669998
 108.9909973  41.6189995 109.8489990 108.5650024  43.6199989 109.5589981
 108.0250015  43.6259995 110.3519974 109.5220032  42.0900002 107.1529999
 108.8069992  42.9239998 106.9840012 108.7829971  40.8709984 107.3600006
 108.5039978  40.6030006 106.4810028 110.3939972  41.9360008 105.9100037
 111.0080032  42.8510017 105.7699966 111.0910034  41.0800018 106.0360031
 109.5849991  41.7439995 104.7340012 110.1640015  41.8030014 103.9700012
  78.1129990 108.9680023 104.8000031  76.3610001 108.8919983 105.9359970
  77.1470032 108.4199982 104.8270035  77.3820038 107.3420029 104.9580002
  76.4219971 108.6110001 103.4929962  76.0739975 109.9940033 103.3259964
  75.4940033 108.0019989 103.5429993  75.1669998 110.1630020 102.2340012
  74.2870026 109.5159988 102.4349976  74.6760025 111.4840012 102.0609970
  75.3850021 112.5469971 102.7190018  75.5960007 112.2819977 103.7770004
  74.6809998 113.4039993 102.7730026  77.2259979 108.1839981 102.2529984
  78.0889969 108.8789978 102.1770020  77.6320038 106.8190002 102.4260025
  79.2440033 106.3239975 102.3919983  79.3949966 105.2939987 103.5230026
  80.1630020 107.5329971 102.6299973  79.4909973 105.6729965 101.0230026
  76.3840027 108.3519974 100.9820023  77.2350006 108.1289978  99.8440018
  75.5569992 107.6129990 101.0540009  76.7009964 107.5189972  98.7900009
  75.5640030 107.0630035  98.7379990  77.6119995 107.6709976  97.5810013
  78.2949982 108.5329971  97.7399979  76.9850006 107.8720016  96.6869965
  75.7429962 109.7409973 100.8970032  76.5690002 110.4520035 100.6790009
  74.7030029 109.8799973  99.8700027  73.7600021 109.7880020 100.1809998
  76.5090027 113.3870010 100.5479965  76.3880005 112.4369965  99.9840012
  75.3529968 114.1849976 100.2630005  75.3610001 115.0049973 100.7630005
  76.6569977 113.0690002 102.0360031  76.8610001 114.0380020 102.5390015
  77.8050003 112.2350006 102.3320007  79.0530014 112.6679993 101.7269974
  79.7080002 111.7710037 101.7200012  79.6380005 113.7419968 102.4560013
  80.3880005 112.7850037 104.7409973  81.9290009 112.6240005 102.7369995
  81.4940033 114.8629990 103.8050003  80.9100037 113.4860001 103.4869995
  77.7959976 114.0490036 100.1129990  78.0029984 114.8470001 100.8580017
  77.7450027 114.7509995  98.8720016  77.5019989 114.0780029  97.7559967
  77.6419983 112.8779984  97.5960007  77.4010010 115.0849991  96.6240005
  77.9449997 114.6859970  95.7409973  77.8610001 116.0510025  96.9219971
  78.8899994 113.0169983 100.2490005  78.5019989 112.0960007  99.7639999
  80.1259995 113.4100037  99.5830002  80.3389969 114.3840027  99.5810013
  78.3740005 106.3529968  97.4039993  78.7570038 106.0230026  98.3929977
  79.4649963 106.5210037  96.4980011  80.5039978 107.2239990  96.9000015
  80.6989975 107.6460037  98.0289993  81.5690002 107.1709976  95.7979965
  81.8160019 106.1039963  95.6129990  82.4800034 107.6880035  96.1679993
  81.0719986 107.8290024  94.4940033  80.8949966 108.9130020  94.6630020
  80.1019974 107.3710022  94.2020035  82.0559998 107.6480026  93.3320007
  82.1269989 106.5650024  93.0920029  83.0640030 107.9940033  93.6449966
  81.6409988 108.4130020  92.0640030  82.3639984 108.1809998  91.2529984
  81.6949997 109.5049973  92.2620010  80.2200012 108.0790024  91.5910034
  79.4980011 108.4010010  92.3720016  80.1110001 106.9800034  91.4720001
  79.8140030 108.7710037  90.2850037  80.0230026 109.8600006  90.3570023
  78.7160034 108.6520004  90.1650009  80.4869995 108.1920013  89.0350037
  80.2959976 107.0979996  89.0009995  81.5849991 108.3519974  89.0869980
  79.9380035 108.8290024  87.7539978  80.1129990 109.9260025  87.7959976
  78.8399963 108.6650009  87.7200012  80.5569992 108.2850037  86.4619980
  80.3679962 107.1920013  86.3970032  81.6559982 108.4449997  86.4840012
  79.9840012 108.9869995  85.2269974  80.2239990 110.0699997  85.2939987
  78.8779984 108.8799973  85.2419968  80.5350037 108.4449997  83.9020004
  80.2429962 107.3759995  83.8259964  81.6449966 108.4879990  83.9339981
  80.0630035 109.2020035  82.6439972  80.6299973 110.1559982  82.5859985
  80.3310013 108.5960007  81.7519989  78.5770035 109.5380020  82.5970001
  78.3339996 110.2750015  83.3919983  77.9530029 108.6330032  82.7649994
  78.2979965 109.9840012  81.6190033  77.4680023 105.2200012  96.8450012
  76.3980026 105.4769974  97.0029984  77.6780014 104.3099976  97.4459991
  77.6770020 104.8489990  95.3580017  77.0690002 103.9479980  95.1289978
  78.7389984 104.5650024  95.1940002  77.2689972 105.9110031  94.3229980
  77.8290024 106.8539963  94.4960022  76.1829987 106.1149979  94.4349976
  77.5329971 105.4100037  92.8990021  76.9869995 104.4489975  92.7819977
  78.6190033 105.2040024  92.7900009  77.0910034 106.3320007  91.7519989
  75.9960022 106.5009995  91.8249969  77.5889969 107.3219986  91.8320007
  77.4229965 105.6859970  90.3960037  77.0449982 104.6419983  90.4319992
  78.5260010 105.6389999  90.2669983  76.7949982 106.3519974  89.1640015
  75.7119980 106.4940033  89.3679962  77.2409973 107.3529968  88.9820023
  76.9430008 105.4649963  87.9140015  77.9700012 105.5490036  87.5000000
  76.8010025 104.4120026  88.2379990  75.9020004 105.7419968  86.8209991
  76.2750015 106.5370026  86.1409988  74.9769974 106.1250000  87.3030014
  75.5159988 104.4940033  86.0149994  76.4069977 104.1370010  85.4560013
  75.2249985 103.6910019  86.7249985  74.3619995 104.7229996  85.0400009
  74.6129990 105.5289993  84.3190002  74.1380005 103.7939987  84.4739990
  73.4489975 105.0260010  85.5960007  74.9309998 110.2939987  98.6129990
  76.0709991 110.3789978  98.1679993  73.7020035 110.6890030  97.7890015
  72.7819977 110.4800034  98.3750000  73.7490005 111.7799988  97.5869980
  73.6490021 109.9069977  96.4570007  73.6790009 108.8249969  96.7060013
  74.7600021 110.3320007  95.6529999  75.3539963 109.3720016  94.9420013
  75.0080032 108.1979980  94.9319992  76.7829971 109.8290024  94.6139984
  77.3539963 108.9540024  94.2369995  77.2470016 110.1650009  95.5660019
  76.8140030 110.9729996  93.5849991  77.7949982 111.4850006  93.6800003
  76.0270004 111.7200012  93.8229980  76.6750031 110.5080032  92.1279984
  75.7099991 109.9769974  91.9879990  77.4960022 109.7929993  91.9039993
  76.7620010 111.6920013  91.1500015  77.6529999 112.2979965  91.4179993
  75.8649979 112.3339996  91.2860031  76.8809967 111.3160019  89.6630020
  75.9800034 110.7440033  89.3560028  77.7689972 110.6660004  89.5090027
  77.0110016 112.5609970  88.7669983  77.9479980 113.1029968  89.0149994
  76.1569977 113.2320023  89.0000000  76.9769974 112.2659988  87.2590027
  76.0899963 111.6259995  87.0680008  77.8769989 111.6920013  86.9489975
  76.8290024 113.5319977  86.3960037  77.8209991 113.9919968  86.1959991
  76.2259979 114.2639999  86.9749985  76.0680008 113.2900009  85.0849991
  75.7009964 114.2600021  84.6869965  75.1780014 112.6679993  85.3229980
  76.8669968 112.5839996  83.9929962  77.7210007 113.2210007  83.6780014
  77.2900009 111.6569977  84.4380035  76.0419998 112.2200012  82.7630005
  75.6500015 113.1309967  82.2610016  75.1869965 111.5709991  83.0479965
  76.6780014 111.6600037  82.0429993  72.3259964 110.1940002  95.6959991
  72.2789993 111.2809982  95.4739990  71.4710007 109.9469986  96.3619995
  72.1669998 109.4150009  94.3759995  72.2040024 108.3229980  94.5790024
  73.0350037 109.6699982  93.7320023  70.8870010 109.7500000  93.5960007
  70.8820038 110.8440018  93.3990021  69.9929962 109.5179977  94.2129974
  70.7689972 109.0240021  92.2409973  69.9240036 109.4769974  91.6809998
  70.5279999 107.9530029  92.4110031  72.0410004 109.1050034  91.3820038
  72.4339981 110.1429977  91.4309998  72.8199997 108.4349976  91.8050003
  71.8339996 108.7689972  89.9000015  71.0619965 109.4530029  89.4850006
  71.4649963 107.7259979  89.7939987  73.1299973 108.9440002  89.0979996
  73.8809967 108.2050018  89.4540024  73.5350037 109.9580002  89.3040009
  72.9589996 108.7990036  87.5810013  72.5940018 107.7760010  87.3479996
  72.1969986 109.5289993  87.2320023  74.2720032 109.0579987  86.8300018
  74.5979996 110.0979996  87.0410004  75.0520020 108.3750000  87.2310028
  74.1750031 108.8629990  85.3130035  73.4270020 109.5800018  84.9130020
  73.8099976 107.8339996  85.1050034  75.5070038 109.0770035  84.5989990
  75.8899994 110.0970001  84.8209991  76.2669983 108.3440018  84.9449997
  75.3929977 108.9769974  83.4990005  75.9199982 115.2979965  96.2870026
  75.8710022 116.1019974  95.5220032  75.2119980 115.7689972  97.4319992
  75.1009979 115.1460037  98.1549988  75.2389984 114.0599976  95.6660004
  75.2050018 113.2170029  96.3889999  75.8799973 113.7440033  94.8160019
  73.8310013 114.3359985  95.1119995  73.7649994 115.4089966  94.8339996
  73.0719986 114.1500015  95.9020004  73.5019989 113.5360031  93.8470001
  73.5729980 112.4469986  94.0559998  74.2570038 113.7770004  93.0680008
  72.1060028 113.8580017  93.2949982  71.9970016 114.9540024  93.1490021
  71.3560028 113.5419998  94.0500031  71.7979965 113.1370010  91.9769974
  72.1709976 112.0940018  92.0559998  70.6959991 113.0859985  91.8470001
  72.3889999 113.8000031  90.7259979  73.4869995 113.9219971  90.8470001
  71.9449997 114.8130035  90.6169968  72.1119995 112.9850006  89.4540024
  71.0289993 112.7389984  89.4160004  72.6699982 112.0260010  89.5179977
  72.4909973 113.7060013  88.1529999  71.8450012 114.6039963  88.0429993
  73.5459976 114.0479965  88.2109985  72.3280029 112.8130035  86.9150009
  73.0709991 111.9879990  86.9729996  71.3150024 112.3590012  86.9250031
  72.5169983 113.5650024  85.5930023  71.7200012 114.3339996  85.5009995
  73.4929962 114.0930023  85.6320038  72.4990005 112.6679993  84.3570023
  72.6940002 113.2659988  83.4410019  73.2910004 111.8929977  84.4410019
  71.5149994 112.1630020  84.2509995  80.7959976 112.5619965  98.7850037
  80.6880035 111.3389969  98.8949966  81.6470032 113.2060013  97.7020035
  82.7239990 113.1360016  97.9649963  81.3720016 114.2799988  97.6309967
  81.3529968 112.5299988  96.3470001  80.2839966 112.2310028  96.2969971
  82.1839981 111.3820038  96.1989975  82.0199966 110.8550034  95.4140015
  81.6129990 113.4889984  95.1699982  82.7009964 113.7009964  95.0920029
  81.1050034 114.4499969  95.4000015  81.0719986 112.9950027  93.8160019
  79.9980011 112.7340012  93.9280014  81.6159973 112.0790024  93.5000000
  81.2099991 114.0670013  92.7289963  82.2850037 114.3099976  92.5930023
  80.7009964 114.9899979  93.0830002  80.6159973 113.6770020  91.3710022
  80.5270004 114.6080017  90.7710037  79.5960007 113.2580032  91.5019989
  81.4909973 112.6969986  90.5759964  82.5459976 113.0400009  90.6470032
  81.4280014 111.6780014  91.0149994  81.1050034 112.6569977  89.0920029
  81.0100021 113.7040024  88.7340012  80.1149979 112.1660004  88.9720001
  82.1370010 111.9479980  88.2050018  83.1529999 112.3239975  88.4520035
  82.1100006 110.8580017  88.4169998  81.8789978 112.1839981  86.7119980
  80.8509979 111.8410034  86.4700012  81.9229965 113.2750015  86.5049973
  82.8659973 111.4660034  85.7809982  83.9029999 111.7620010  86.0469971
  82.7679977 110.3690033  85.9260025  82.6029968 111.8020020  84.3089981
  81.5569992 111.5169983  84.0660019  82.6780014 112.9039993  84.1920013
  83.5469971 111.1340027  83.3170013  83.2890015 111.4440002  82.2819977
  84.5970001 111.4390030  83.5139999  83.4749985 110.0279999  83.3899994
  76.0400009 106.7360001 107.0979996  76.6250000 105.8610001 107.7979965
  74.8809967 106.6330032 106.6019974  76.6399994 108.2030029 107.1600037
  78.6230011 109.4589996 107.6999969  78.4469986 110.0810013 106.7969971
  78.0619965 108.1470032 107.4649963  75.8809967 108.9990005 108.2399979
  75.8840027 108.3990021 109.1750031  74.8209991 109.1050034 107.9240036
  76.4720001 110.3450012 108.5390015  76.3970032 110.9609985 107.6169968
  75.7350006 110.9660034 109.6080017  77.9430008 110.1849976 108.8659973
  78.3870010 111.2020035 108.9260025  78.1620026 109.5329971 110.1240005
  77.8440018 110.1039963 110.8280029  80.1350021 109.3320007 107.8669968
  80.3430023 108.6699982 108.7340012  80.7409973 110.6159973 108.1100006
  81.6490021 110.5169983 107.8160019  80.7580032 108.7210007 106.6169968
  80.2659988 107.7509995 106.3919983  80.5859985 109.3870010 105.7450027
  82.1719971 108.4929962 106.7919998  82.3629990 107.5979996 106.5009995
  76.5739975 113.2320023 109.1429977  76.5680008 113.9980011 108.1409988
  77.3939972 113.2710037 110.1050034  75.3130035 112.3059998 109.3619995
  73.1900024 111.6179962 108.4589996  73.4940033 110.5749969 108.6930008
  74.3949966 112.3870010 108.2350006  74.5920029 112.7119980 110.6630020
  74.3769989 113.8000031 110.6050034  75.2779999 112.5609970 111.5250015
  73.3140030 111.9759979 110.8919983  73.5380020 110.8939972 111.0110016
  72.7099991 112.4380035 112.0999985  73.0289993 111.9229965 112.8440018
  72.4049988 112.1190033 109.6780014  71.5319977 111.4489975 109.8320007
  71.9069977 113.4520035 109.4919968  71.4199982 113.7129974 110.2770004
  72.3460007 111.5319977 107.1890030  71.9229965 112.5380020 106.9800034
  71.2699966 110.5950012 107.3860016  70.7659988 110.6149979 106.5690002
  73.1770020 111.0899963 105.9889984  74.0530014 111.7630005 105.8759995
  73.5640030 110.0609970 106.1480026  72.4020004 111.1399994 104.7740021
  73.0139999 111.2789993 104.0469971  93.7149963 109.4810028 104.2900009
  95.1050034 110.4390030 105.5250015  94.1979980 110.4749985 104.4049988
  93.3850021 111.2089996 104.5930023  94.8990021 110.8539963 103.0940018
  95.9369965 109.9039993 102.8020020  95.3720016 111.8479996 103.2519989
  96.7480011 110.3600006 101.7040024  97.0329971 111.4160004 101.9000015
  97.9599991 109.6449966 101.4820023  98.1559982 108.4580002 102.2669983
  97.7450027 108.5680008 103.2929993  99.2500000 108.3310013 102.4069977
  93.9540024 110.9540024 101.8809967  93.4720001 109.9599991 101.7639999
  93.0029984 111.9960022 102.1549988  91.3389969 111.7689972 102.1050034
  90.7509995 112.8119965 103.0650024  91.0110016 110.3420029 102.5719986
  90.8750000 112.0299988 100.6669998  94.7419968 111.2539978 100.6009979
  93.8649979 111.1230011  99.4690018  95.1600037 112.2750015 100.7350006
  93.8000031 112.1539993  98.6269989  94.4130020 113.2070007  98.7590027
  93.2490005 111.6770020  97.2910004  93.3020020 110.5680008  97.2450027
  93.8850021 112.0940018  96.4820023  95.9540024 110.3430023 100.4120026
  95.5849991 109.3050003 100.2669983  96.7979965 110.6949997  99.2649994
  97.5960007 111.2529984  99.4779968  98.2500000 106.9319992 100.2279968
  97.9530029 107.7760010  99.5699997  99.6839981 106.9039993 100.2860031
 100.0009995 106.0859985 100.6770020  97.6230011 107.1880035 101.5999985
  97.9219971 106.3440018 102.2580032  96.1750031 107.1969986 101.5759964
  95.5540009 106.0940018 100.8730011  94.5449982 106.4800034 100.6129990
  95.4660034 104.9670029 101.7440033  93.0039978 105.4400024 102.4520035
  93.5179977 103.4769974 100.9209976  94.2289963 103.4150009 103.3529968
  93.9810028 104.3020020 102.1269989  97.6809998 105.6370010  99.6880035
  97.8079987 104.8769989 100.4879990  98.3359985 105.0709991  98.5490036
  98.4779968 105.8170013  97.4560013  97.9820023 106.9140015  97.2750015
  99.0279999 104.9199982  96.3519974  98.2630005 104.8420029  95.5500031
  99.2129974 103.9029999  96.7610016  96.1949997 105.8270035  99.5070038
  96.0790024 106.7699966  98.9300003  95.5569992 104.7580032  98.7539978
  95.9189987 103.8389969  98.8870010  91.8030014 112.1869965  97.1880035
  91.3069992 112.0120010  98.1660004  91.0749969 111.4950027  96.1640015
  90.8249969 110.2099991  96.3710022  90.9950027 109.6110001  97.4240036
  89.9209976 109.6959991  95.2399979  89.1139984 110.4410019  95.0719986
  89.4560013 108.7480011  95.5869980  90.6999969 109.4509964  93.9290009
  91.4560013 108.6520004  94.0849991  91.2399979 110.3809967  93.6490021
  89.7750015 109.0569992  92.7649994  89.0869980 109.9049988  92.5589981
  89.1539993 108.1869965  93.0690002  90.5139999 108.7009964  91.4629974
  89.7590027 108.4720001  90.6800003  91.1179962 107.7819977  91.6220016
  91.4400024 109.8150024  90.9499969  92.2389984 109.9820023  91.7040024
  90.8720016 110.7639999  90.8489990  92.1220016 109.4919968  89.6129990
  92.5210037 108.4550018  89.6380005  92.9850006 110.1809998  89.4950027
  91.2180023 109.6760025  88.3840027  90.8730011 110.7320023  88.3639984
  90.3259964 109.0189972  88.4639969  91.9570007 109.3750000  87.0739975
  92.2320023 108.2979965  87.0540009  92.9039993 109.9560013  87.0729980
  91.1640015 109.7190018  85.8050003  90.9469986 110.8089981  85.7969971
  90.1949997 109.1770020  85.8290024  91.9160004 109.3529968  84.5159988
  92.2220001 108.2870026  84.5709991  92.8410034 109.9670029  84.4589996
  91.0970001 109.5569992  83.2330017  90.7269974 110.6039963  83.1900024
  90.2109985 108.8889999  83.2789993  91.8750000 109.2519989  81.9420013
  92.3300018 108.2440033  82.0439987  91.1510010 109.2050018  81.0999985
  92.9759979 110.2539978  81.5879974  93.5130005 109.9319992  80.6709976
  93.7119980 110.3249969  82.4169998  92.5449982 111.2630005  81.4140015
  91.7210007 113.7160034  96.9079971  92.5989990 114.2320023  97.3529968
  90.8219986 114.0859985  97.4449997  91.5640030 114.1460037  95.4280014
  91.3840027 115.2419968  95.3980026  90.6520004 113.6589966  95.0199966
  92.7440033 113.8330002  94.4909973  93.0950012 112.7919998  94.6529999
  93.5810013 114.5260010  94.7210007  92.3649979 113.9540024  93.0080032
  91.9400024 114.9629974  92.8209991  91.5670013 113.2099991  92.7979965
  93.5210037 113.7200012  92.0230026  94.2139969 114.5869980  92.0810013
  94.0810013 112.8059998  92.3150024  93.0339966 113.5559998  90.5759964
  92.4349976 114.4479980  90.2910004  92.3619995 112.6719971  90.5299988
  94.1449966 113.3730011  89.5319977  94.6979980 114.3310013  89.4229965
  94.8629990 112.5960007  89.8710022  93.5729980 112.9660034  88.1669998
  93.1119995 111.9599991  88.2600021  92.7679977 113.6819992  87.8970032
  94.5849991 112.9469986  87.0159988  95.4879990 112.3769989  87.3219986
  94.9000015 113.9929962  86.8130035  94.0029984 112.3249969  85.7379990
  93.9940033 111.2220001  85.8679962  92.9469986 112.6529999  85.6370010
  94.7440033 112.6409988  84.4430008  94.2539978 112.1139984  83.5960007
  94.7379990 113.7330017  84.2360001  95.8000031 112.3040009  84.5110016
  96.6340027 110.2129974  98.0169983  95.6610031 109.5250015  97.7099991
  97.7480011 110.5439987  97.0159988  98.1740036 111.5390015  97.2669983
  98.5490036 109.7809982  97.1139984  97.2220001 110.5699997  95.5589981
  96.3669968 111.2779999  95.5179977  96.8880005 109.2289963  95.1780014
  95.6880035 109.0650024  94.6370010  94.8639984 109.9459991  94.4250031
  95.3529968 107.5670013  94.5999985  94.3099976 107.4540024  94.2350006
  95.4079971 107.1859970  95.6419983  96.3320007 106.7939987  93.6999969
  96.1330032 105.7060013  93.8079987  97.3740005 106.9789963  94.0370026
  96.2030029 107.1729965  92.2220001  96.3949966 108.2590027  92.0899963
  95.1620026 106.9700012  91.8899994  97.1679993 106.3830032  91.3270035
  97.0670013 105.3020020  91.5619965  98.2139969 106.6859970  91.5469971
  96.8720016 106.5849991  89.8359985  97.0019989 107.6569977  89.5739975
  95.8069992 106.3229980  89.6569977  97.7440033 105.7300034  88.9079971
  97.7539978 104.6829987  89.2799988  98.7860031 106.1159973  88.9309998
  97.2229996 105.7340012  87.4639969  97.1930008 106.7860031  87.1060028
  96.1809998 105.3489990  87.4609985  98.0759964 104.9079971  86.4899979
  98.1930008 103.8769989  86.8880005  99.0849991 105.3710022  86.4390030
  97.5029984 104.8290024  85.0609970  98.2630005 104.3359985  84.4179993
  97.3519974 105.8560028  84.6660004  96.1869965 104.0380020  84.9359970
  96.2910004 103.3300018  84.0849991  96.0360031 103.4319992  85.8539963
  94.9499969 104.9010010  84.6760025  95.0400009 105.3980026  83.6859970
  94.0279999 104.2809982  84.6699982  94.8479996 105.6869965  85.4540024
  98.3119965 111.0839996  94.5849991  99.1979980 110.4179993  94.6640015
  98.6169968 112.1009979  94.9130020  97.8929977 111.1650009  93.1039963
  97.0650024 111.8990021  93.0009995  97.5159988 110.1760025  92.7679977
  99.0599976 111.5820007  92.1940002  99.8560028 110.8089981  92.2470016
  99.4820023 112.5309982  92.5869980  98.6949997 111.8150024  90.7190018
  99.5790024 112.2580032  90.2119980  97.8740005 112.5619965  90.6600037
  98.2679977 110.5660019  89.9359970  99.0709991 109.8010025  90.0019989
  97.3509979 110.1429977  90.3980026  98.0000000 110.8740005  88.4540024
  98.9540024 111.1800003  87.9739990  97.3010025 111.7350006  88.3909988
  97.4069977 109.6969986  87.6660004  96.4540024 109.3850021  88.1439972
  98.1090012 108.8379974  87.7239990  97.1409988 110.0270004  86.1910019
  96.4729996 110.9130020  86.1340027  98.1019974 110.3059998  85.7080002
  96.4929962 108.8820038  85.4020004  97.1959991 108.0220032  85.3690033
  95.5759964 108.5510025  85.9349976  96.1360016 109.2639999  83.9609985
  97.0530014 109.6559982  83.4720001  95.3850021 110.0830002  83.9850006
  95.5830002 108.1169968  83.1240005  96.3150024 107.2819977  83.0889969
  94.6340027 107.7379990  83.5599976  95.3789978 108.4520035  82.0849991
 100.3450012 105.4680023  95.7720032 100.7919998 104.6549988  95.1610031
 101.2649994 105.7669983  96.8160019 101.1979980 106.6510010  97.1849976
 100.1770020 106.6809998  94.8320007  99.7200012 107.5370026  95.3730011
  99.4700012 106.3789978  94.0289993 101.4810028 107.1389999  94.1549988
 102.0149994 106.2450027  93.7669983 102.1399994 107.6240005  94.9059982
 101.2450027 108.1029968  92.9820023 100.6839981 108.9950027  93.3339996
 100.6080017 107.5849991  92.2340012 102.5550003 108.5559998  92.3160019
 103.1800003 107.6630020  92.1029968 103.1119995 109.1930008  93.0360031
 102.3639984 109.3379974  91.0039978 101.6890030 110.2030029  91.1800003
 103.3499985 109.7409973  90.6859970 101.8010025 108.4830017  89.8580017
 100.7850037 108.1269989  90.1330032 102.4499969 107.5930023  89.7160034
 101.6949997 109.2399979  88.5289993 102.6989975 109.6119995  88.2310028
 101.0339966 110.1220016  88.6689987 101.1210022 108.3700027  87.4029999
 101.7929993 107.5039978  87.2259979 100.1360016 107.9759979  87.7320023
 100.9160004 109.1340027  86.0899963 100.2360001 109.9919968  86.2799988
 101.8880005 109.5419998  85.7409973 100.3040009 108.2610016  84.9899979
 101.0149994 107.4359970  84.7699966  99.3710022 107.8059998  85.3850021
  99.9769974 109.0039978  83.6969986  99.5279999 108.3140030  82.9509964
  99.2600021 109.8270035  83.9020004 100.8980026 109.4499969  83.2610016
  94.5599976 104.9729996  97.8789978  94.0059967 106.0690002  97.7750015
  94.1859970 103.7910004  96.9899979  93.4570007 103.1389999  97.5169983
  95.1100006 103.2040024  96.7990036  93.6240005 104.2860031  95.6429977
  94.1129990 105.2419968  95.3580017  92.2149963 104.4800034  95.7539978
  91.8010025 104.9240036  95.0100021  93.9120026 103.2809982  94.5100021
  93.2959976 102.3669968  94.6490021  94.9800034 102.9850006  94.5810013
  93.6849976 103.8560028  93.1039963  94.1790009 104.8489990  93.0360031
  92.5970001 104.0090027  92.9390030  94.2620010 102.9589996  91.9990005
  93.7170029 101.9919968  91.9869995  95.3270035 102.7450027  92.2340012
  94.1989975 103.6019974  90.6050034  94.6859970 102.9240036  89.8720016
  94.7750015 104.5520020  90.6179962  92.7669983 103.8939972  90.1380005
  92.1790009 102.9520035  90.1770020  92.2910004 104.6210022  90.8300018
  92.6969986 104.4690018  88.7190018  93.1979980 103.7710037  88.0139999
  93.2450027 105.4339981  88.6859970  91.2480011 104.6910019  88.2659988
  90.7089996 103.7200012  88.2949982  90.7480011 105.3789978  88.9820023
  91.1470032 105.2819977  86.8570023  91.6289978 106.2819977  86.8529968
  91.7060013 104.6380005  86.1449966  89.6999969 105.4189987  86.3700027
  89.2490005 104.4049988  86.3109970  89.1129990 106.0139999  87.1009979
  89.6070023 106.0849991  84.9940033  89.9059982 107.1510010  85.0830002
  90.3460007 105.6009979  84.3190002  88.2330017 105.9899979  84.3470001
  88.2549973 106.4570007  83.3379974  87.9219971 104.9300003  84.2279968
  87.4720001 106.5199966  84.9589996  94.0770035 112.3040009 106.7890015
  93.0950012 112.6200027 107.5199966  94.9390030 113.1019974 106.3229980
  94.4710007 110.7669983 106.7669983  93.6050034 108.5650024 107.2070007
  94.1480026 108.2109985 106.3050003  93.2839966 109.9599991 107.0159988
  95.5510025 110.5279999 107.8460007  95.1969986 111.0149994 108.7799988
  96.4869995 111.0479965 107.5459976  95.8410034 109.0899963 108.1610031
  96.3379974 108.6350021 107.2779999  96.7210007 109.0490036 109.2990036
  94.5380020 108.3509979 108.4039993  94.7669983 107.2639999 108.4440002
  93.9240036 108.7119980 109.6480026  94.5039978 108.4440002 110.3649979
  92.3190002 107.7460022 107.3069992  91.7699966 108.0619965 108.2200012
  92.6190033 106.3410034 107.4079971  91.8050003 105.8949966 107.1610031
  91.4209976 107.9729996 106.0960007  91.2320023 109.0579987 105.9509964
  91.9349976 107.6050034 105.1829987  90.1569977 107.2949982 106.2429962
  89.5400009 107.9059982 106.6529999  97.2330017 106.6419983 109.1259995
  97.6259995 105.9499969 108.1460037  96.5240021 106.2350006 110.0899963
  97.7929993 108.1110001 109.2620010  99.3619995 109.7030029 108.3410034
  98.5520020 110.4629974 108.3300018  98.7460022 108.4000015 108.2020035
  98.4629974 108.3010025 110.6360016  99.2320023 107.5080032 110.7549973
  97.7099991 108.1470032 111.4380035  99.1090012 109.6380005 110.7959976
  98.3339996 110.4290009 110.7109985  99.6930008 109.7350006 112.0950012
  99.0670013 110.1250000 112.7089996 100.1110001 109.8629990 109.6729965
 100.4680023 110.9130020 109.7470016 101.2570038 109.0029984 109.7570038
 101.7180023 109.1819992 110.5800018 100.2409973 109.9869995 107.1250000
 101.0759964 109.2539978 107.1200027 100.7870026 111.3190002 107.2040024
 101.4000015 111.3929977 106.4680023  99.4550018 109.8430023 105.8270035
  98.9710007 108.8440018 105.7959976  98.6470032 110.6039963 105.7779999
 100.3160019 109.9530029 104.6780014 100.2679977 110.8619995 104.3750000
 111.0090027  54.9780006 104.5530014 109.2870026  54.4319992 105.6169968
 110.2070007  54.2089996 104.5339966 110.6890030  53.2130013 104.6409988
 109.4769974  54.2659988 103.1930008 108.8399963  55.5449982 103.0469971
 108.7020035  53.4700012 103.2190018 107.9049988  55.5110016 101.9580002
 107.2809982  54.5989990 102.0680008 106.9899979  56.5979996 101.8929977
 107.2050018  57.6920013 102.8010025 107.6689987  57.3709984 103.7580032
 106.2060013  58.0909996 103.0810013 110.3610001  54.0509987 101.9570007
 111.1169968  54.8650017 101.9410019 110.9479980  52.7490005 102.0599976
 112.5879974  52.4560013 102.0660019 112.9059982  51.7910004 103.4069977
 113.3499985  53.7809982 101.9199982 112.8669968  51.5149994 100.8929977
 109.5270004  54.1389999 100.6729965 110.4250031  54.0620003  99.5490036
 108.8320007  53.2739983 100.7160034 110.0110016  53.3629990  98.4889984
 108.9380035  52.7809982  98.4020004 110.9260025  53.5999985  97.3030014
 111.2829971  54.6520004  97.3239975 110.3369980  53.4379997  96.3750000
 108.6480026  55.3989983 100.6350021 109.3170013  56.2820015 100.5559998
 107.7109985  55.4360008  99.5130005 106.7789993  55.1450005  99.7139969
 107.3919983  59.2849998 100.8280029 107.4000015  58.3940010 100.1650009
 106.0289993  59.7099991 100.9589996 105.9560013  60.5079994 101.4889984
 107.9929962  58.8349991 102.1660004 107.9309998  59.6959991 102.8649979
 109.3919983  58.4700012 102.0759964 110.2259979  59.4319992 101.3909988
 111.1669998  58.8800011 101.1829987 110.4609985  60.5589981 102.2320023
 112.8349991  59.8600006 102.9940033 112.5550003  61.7680016 101.3349991
 111.8399963  62.0680008 103.7409973 112.0000000  61.0769997 102.5839996
 108.2689972  60.3569984 100.2119980 108.3679962  61.1619987 100.9710007
 107.7369995  61.0209999  99.0609970 107.3870010  60.2820015  98.0139999
 107.6569977  59.1030006  97.8590012 106.9660034  61.2350006  96.9029999
 107.7939987  61.2879982  96.1640015 106.8010025  62.2509995  97.3229980
 109.6409988  59.7490005 100.0149994 109.4710007  58.7669983  99.5240021
 110.5270004  60.5070000  99.1429977 110.3720016  61.4900017  99.0869980
 112.0650024  52.5779991  97.3820038 112.5100021  52.6250000  98.3990021
 113.0650024  52.8580017  96.4000015 113.7600021  53.9690018  96.5299988
 113.7939987  54.6870003  97.5189972 114.6949997  54.1040001  95.3219986
 115.3519974  53.2080002  95.3020020 115.3270035  55.0050011  95.4720001
 113.9089966  54.2130013  93.9950027 113.3259964  55.1590004  93.9800034
 113.1869965  53.3709984  93.9319992 114.8140030  54.1580009  92.7549973
 115.3639984  53.1930008  92.7519989 115.5650024  54.9739990  92.8209991
 114.0479965  54.2989998  91.4240036 114.7799988  54.2579994  90.5899963
 113.5619965  55.2980003  91.3960037 112.9700012  53.2239990  91.1989975
 112.2129974  53.3030014  92.0090027 113.4260025  52.2140007  91.2689972
 112.2210007  53.3520012  89.8619995 111.8590012  54.3950005  89.7389984
 111.3249969  52.6959991  89.9049988 113.0459976  52.9469986  88.6309967
 113.4550018  51.9259987  88.7850037 113.9010010  53.6479988  88.5199966
 112.2160034  52.9659996  87.3399963 111.7710037  53.9770012  87.2249985
 111.3759995  52.2430000  87.4280014 113.0220032  52.6590004  86.0719986
 113.4229965  51.6240005  86.1210022 113.8809967  53.3619995  86.0210037
 112.1819992  52.8250008  84.7990036 111.7229996  53.8370018  84.8020020
 111.3420029  52.0979996  84.8130035 112.9680023  52.6689987  83.4929962
 113.3259964  51.6220016  83.4000015 113.8519974  53.3419991  83.5110016
 112.1100006  53.0299988  82.2760010 111.1890030  52.4099998  82.3050003
 111.7880020  54.0870018  82.3909988 112.7880020  52.8569984  80.9229965
 113.6790009  53.5169983  80.8509979 112.0869980  53.1250000  80.1039963
 113.1119995  51.8040009  80.7789993 111.5820007  51.1220016  97.1409988
 110.5589981  50.9739990  97.5490036 112.2610016  50.4729996  97.7350006
 111.6510010  50.5989990  95.6859970 111.4010010  49.5169983  95.6969986
 112.6949997  50.6839981  95.3160019 110.7089996  51.2309990  94.6500015
 110.9160004  52.3190002  94.5520020 109.6559982  51.1049995  94.9810028
 110.9069977  50.5579987  93.2809982 110.9199982  49.4570007  93.4250031
 111.9000015  50.8540001  92.8809967 109.8310013  50.8790016  92.2369995
 108.8399963  50.5589981  92.6259995 109.7890015  51.9770012  92.0690002
 110.1009979  50.1749992  90.8970032 110.2829971  49.0929985  91.0759964
 111.0270004  50.6030006  90.4570007 108.9520035  50.3209991  89.8909988
 108.0780029  49.7360001  90.2500000 108.6500015  51.3899994  89.8580017
 109.3099976  49.8950005  88.4589996 110.0820007  50.5999985  88.0820007
 109.7470016  48.8740005  88.4530029 108.0999985  49.9360008  87.5130005
 107.4869995  50.8240013  87.7779999 107.4749985  49.0320015  87.6750031
 108.4589996  50.0709991  86.0289993 109.0339966  51.0120010  85.8929977
 109.1230011  49.2270012  85.7409973 107.2519989  50.0950012  85.0920029
 107.5879974  50.2200012  84.0400009 106.6740036  49.1500015  85.1689987
 106.5810013  50.9440002  85.3420029 108.0250015  55.7939987  98.2549973
 109.1330032  56.2330017  97.9469986 106.9300003  55.5639992  97.2259979
 106.2289963  54.7970009  97.6190033 106.3700027  56.5070000  97.0550003
 107.5429993  55.0439987  95.9100037 108.3379974  54.3059998  96.1520004
 108.0339966  56.1800003  95.1829987 109.1620026  55.9959984  94.4970016
 109.7809982  54.9440002  94.4199982 109.8539963  57.3610001  94.3529968
 110.8820038  57.1930008  93.9680023 109.9329987  57.7929993  95.3730011
 109.0849991  58.3349991  93.4400024 109.4039993  59.3639984  93.7089996
 107.9919968  58.2669983  93.6289978 109.3580017  58.1479988  91.9430008
 108.9209976  57.1910019  91.5859985 110.4570007  58.1049995  91.7819977
 108.7990036  59.3190002  91.1200027 109.1520004  60.2639999  91.5859985
 107.6890030  59.3129997  91.1650009 109.2529984  59.3190002  89.6539993
 108.7590027  58.4819984  89.1149979 110.3499985  59.1430016  89.6169968
 108.9599991  60.6440010  88.9369965 109.5149994  61.4529991  89.4570007
 107.8750000  60.8709984  89.0110016 109.3690033  60.6360016  87.4570007
 108.7020035  59.9319992  86.9140015 110.4079971  60.2519989  87.3659973
 109.2929993  62.0279999  86.8109970 110.0279999  62.6870003  87.3209991
 108.2789993  62.4440002  86.9909973 109.5699997  62.0639992  85.2990036
 109.4179993  63.1040001  84.9390030 108.8280029  61.4189987  84.7819977
 110.9800034  61.6129990  84.8949966 111.7279968  62.2060013  85.4629974
 111.1119995  60.5489998  85.1869965 111.2570038  61.7519989  83.3980026
 111.1740036  62.8139992  83.0820007 112.2799988  61.3940010  83.1549988
 110.5260010  61.1510010  82.8160019 106.4530029  54.3069992  95.0999985
 105.6320038  55.0190010  94.8700027 106.0279999  53.5089989  95.7460022
 106.9240036  53.6520004  93.7949982 107.7310028  52.9179993  94.0059967
 107.3460007  54.4469986  93.1419983 105.7639999  52.9650002  93.0660019
 104.9479980  53.7099991  92.9540024 105.3720016  52.1370010  93.6940002
 106.0869980  52.4220009  91.6669998 105.1250000  52.1290016  91.1949997
 106.7149963  51.5089989  91.7450027 106.7979965  53.4319992  90.7549973
 106.4499969  54.4599991  90.9909973 107.8880005  53.3829994  90.9660034
 106.5439987  53.1749992  89.2679977 105.5270004  53.5400009  89.0100021
 106.5619965  52.0779991  89.0940018 107.5780029  53.8349991  88.3460007
 108.5749969  53.3860016  88.5429993 107.6350021  54.9189987  88.5839996
 107.2379990  53.6720009  86.8610001 107.1610031  52.5870018  86.6340027
 106.2429962  54.1269989  86.6650009 108.2659988  54.2900009  85.9059982
 108.3059998  55.3870010  86.0759964 109.2710037  53.8699989  86.1279984
 107.9229965  54.0159988  84.4369965 106.8960037  54.3940010  84.2450027
 107.9089966  52.9160004  84.2799988 108.8779984  54.6520004  83.4329987
 108.8789978  55.7570000  83.5490036 109.9140015  54.2830009  83.5950012
 108.5699997  54.4059982  82.3939972 105.6800003  60.7589989  96.2060013
 105.3860016  61.5519981  95.4850006 104.6220016  60.6269989  97.1480026
 104.6100006  59.8110008  97.6539993 105.8669968  59.4630013  95.3949966
 106.0920029  58.6049995  96.0650024 106.7549973  59.6189995  94.7460022
 104.6900024  59.0680008  94.4950027 104.3759995  59.9449997  93.8899994
 103.8270035  58.7589989  95.1230011 105.0790024  57.9269981  93.5449982
 105.4779968  57.0690002  94.1259995 105.9010010  58.2999992  92.8970032
 103.9130020  57.4510002  92.6719971 103.3929977  58.3429985  92.2610016
 103.1890030  56.8930016  93.3030014 104.3140030  56.5589981  91.4889984
 104.6979980  55.5820007  91.8539963 103.3980026  56.3590012  90.8929977
 105.3649979  57.2019997  90.5770035 106.3779984  56.9020004  90.9189987
 105.2929993  58.3069992  90.6729965 105.1829987  56.8610001  89.0950012
 104.1849976  57.2270012  88.7720032 105.2020035  55.7589989  88.9599991
 106.2730026  57.4949989  88.2249985 106.3600006  58.5730019  88.4789963
 107.2440033  57.0159988  88.4720001 106.0360031  57.3730011  86.7160034
 106.9530029  57.7389984  86.2060013 105.9020004  56.3059998  86.4359970
 104.8430023  58.1899986  86.2149963 103.9049988  57.7120018  86.5709991
 104.8880005  59.2019997  86.6709976 104.7829971  58.3400002  84.7030029
 105.6119995  58.9809990  84.3349991 104.8570023  57.3499985  84.2050018
 103.8180008  58.8069992  84.4120026 111.5100021  59.9179993  98.4339981
 111.7740021  58.7210007  98.5630035 112.2750015  60.8079987  97.4589996
 113.2720032  61.0480003  97.8860016 111.7070007  61.7560005  97.3430023
 112.4130020  60.1380005  96.0739975 111.4629974  59.6240005  95.8150024
 113.4879990  59.2029991  96.0869980 113.5650024  58.6559982  95.3020020
 112.6949997  61.1959991  94.9879990 113.7060013  61.6329994  95.1299973
 111.9599991  62.0149994  95.1409988 112.5240021  60.7239990  93.5329971
 111.5770035  60.1500015  93.4440002 113.3600006  60.0499992  93.2470016
 112.4570007  61.9230003  92.5749969 113.4029999  62.5009995  92.6309967
 111.6399994  62.5890007  92.9270020 112.1589966  61.5610008  91.1129990
 111.8570023  62.4920006  90.5879974 111.2979965  60.8610001  91.0670013
 113.3489990  60.9599991  90.3499985 114.2350006  61.6129990  90.4990005
 113.5879974  59.9539986  90.7570038 113.0579987  60.8650017  88.8450012
 112.7470016  61.8699989  88.4879990 112.2040024  60.1749992  88.6800003
 114.2460022  60.3979988  87.9940033 115.1539993  60.9809990  88.2600021
 114.4499969  59.3279991  88.2139969 113.9690018  60.5620003  86.4929962
 113.0039978  60.0639992  86.2580032 113.8509979  61.6419983  86.2610016
 115.0500031  59.9589996  85.5869980 116.0449982  60.3730011  85.8560028
 115.0759964  58.8610001  85.7590027 114.7870026  60.2200012  84.0970001
 113.7279968  59.9710007  83.8730011 114.9140015  61.3050003  83.8970032
 115.6760025  59.4109993  83.1559982 115.4990005  59.7080002  82.0999985
 116.7500000  59.5639992  83.3929977 115.4540024  58.3269997  83.2570038
 109.9390030  52.4910011 107.0110016 110.8410034  52.0540009 107.7809982
 108.9670029  51.8209991 106.5559998 109.8069992  54.0649986 106.8970032
 110.9800034  56.1430016 107.2539978 110.6029968  56.5089989 106.2750015
 111.0839996  54.7010002 107.1869965 108.7310028  54.5449982 107.8880005
 108.9810028  54.1399994 108.8919983 107.7529984  54.1090012 107.5940018
 108.6190033  56.0369987 107.9710007 108.3290024  56.4080009 106.9649963
 107.6250000  56.4010010 108.9430008 109.9769974  56.6180000 108.3109970
 109.9029999  57.7239990 108.2320023 110.3949966  56.2999992 109.6460037
 109.7730026  56.6889992 110.2659988 112.3750000  56.7319984 107.4449997
 112.7799988  56.3759995 108.4169998 112.3280029  58.1710014 107.4599991
 113.2239990  58.4469986 107.2539978 113.3059998  56.2770004 106.3270035
 113.3030014  55.1689987 106.2490005 112.9349976  56.6769981 105.3590012
 114.6589966  56.7239990 106.5459976 115.1269989  56.0270004 107.0110016
 107.0839996  58.5180016 107.7760010 106.5520020  58.8590012 106.6839981
 107.8590012  59.2249985 108.4800034 106.5429993  57.2000008 108.4649963
 105.0459976  55.3120003 108.2279968 105.8789978  54.6879997 108.6179962
 105.6600037  56.4519997 107.5729980 105.8069992  57.5750008 109.7659988
 105.0390015  58.3380013 109.5159988 106.5220032  58.0569992 110.4670029
 105.1490021  56.4129982 110.4309998 105.9270020  55.6759987 110.7229996
 104.4929962  56.8520012 111.6190033 105.0879974  56.7830009 112.3690033
 104.2129974  55.7210007 109.4509964 103.8369980  54.7999992 109.9469986
 103.0770035  56.5200005 109.0910034 102.6070023  56.7570000 109.8939972
 104.2760010  54.4020004 107.2600021 103.3410034  54.9179993 106.9520035
 103.9449997  53.1749992 107.9359970 103.0709991  52.9469986 107.6119995
 105.1090012  54.0979996 106.0130005 105.3280029  55.0460014 105.4779968
 106.0839996  53.6650009 106.3249969 104.4729996  53.1959991 105.0899963
 103.8639984  53.7080002 104.5530014  62.4809990  58.5000000 104.7779999
  63.3250008  56.9560013 105.9120026  63.4080009  57.8909988 104.8190002
  64.2549973  58.5919991 104.9769974  63.6080017  57.1850014 103.4789963
  62.5110016  56.2879982 103.2600021  64.5479965  56.5960007 103.5490036
  62.7470016  55.4529991 102.1200027  63.7669983  55.0229988 102.2129974
  61.8660011  54.3470001 102.0029984  60.6529999  54.3979988 102.7760010
  60.8079987  54.8600006 103.7740021  60.3619995  53.3470001 102.9889984
  63.6990013  58.1389999 102.2779999  62.7599983  58.7330017 102.2720032
  64.8700027  58.9529991 102.4290009  64.8499985  60.6250000 102.5500031
  65.3339996  60.9640007 103.9649963  63.4319992  61.1520004 102.2959976
  65.8450012  61.1300011 101.4980011  63.7779999  57.3709984 100.9509964
  63.6699982  58.3310013  99.8830032  64.7620010  56.8549995 100.9629974
  64.4449997  58.1360016  98.8190002  65.2689972  57.2389984  98.6940002
  63.9819984  58.9920006  97.6610031  62.8740005  58.9490013  97.5950012
  64.4020004  58.5559998  96.7300034  62.7179985  56.2659988 100.8389969
  61.7210007  56.7519989 100.7799988  62.8759995  55.4049988  99.6630020
  63.3470001  54.5379982  99.8069992  59.2490005  54.4939995 100.6589966
  60.1329994  54.7550011 100.0380020  59.1300011  53.0649986 100.6699982
  58.3440018  52.7789993 101.1419983  59.4749985  55.0530014 102.0589981
  58.5740013  54.8069992 102.6600037  59.5960007  56.4930000 102.0749969
  58.5260010  57.1899986 101.3970032  58.9329987  58.2109985 101.2369995
  57.3670006  57.2220001 102.2269974  57.7900009  59.6240005 103.1210022
  55.8839989  59.2080002 101.4879990  55.7430000  58.3219986 103.8519974
  56.6739998  58.6669998 102.6849976  58.0279999  55.1570015 100.0680008
  57.2000008  55.0250015 100.7969971  57.5579987  54.5359993  98.8690033
  58.4459991  54.3600006  97.8860016  59.2859993  55.1759987  97.5479965
  57.9459991  53.1959991  97.0459976  57.3650017  53.5950012  96.1880035
  57.2690010  52.5849991  97.6809998  58.2989998  56.6399994  99.9860001
  59.2709999  56.7500000  99.4599991  57.3110008  57.3650017  99.2119980
  56.4290009  56.9189987  99.0749969  64.4919968  60.4179993  97.8789978
  64.1449966  60.7639999  98.8759995  63.9790001  61.2729988  96.8479996
  62.6730003  61.4970016  96.8870010  61.9430008  61.2970009  97.8470001
  62.2270012  62.1749992  95.5869980  62.9930000  62.9269981  95.2990036
  61.2700005  62.7029991  95.7880020  62.0359993  61.1459999  94.4520035
  61.2459984  60.4169998  94.7310028  62.9830017  60.5810013  94.3180008
  61.6650009  61.8019981  93.1129990  62.4819984  62.4980011  92.8239975
  60.7410011  62.4049988  93.2429962  61.4469986  60.8059998  91.9589996
  61.2570000  61.3899994  91.0329971  60.5419998  60.1930008  92.1559982
  62.6360016  59.8590012  91.7200012  62.6510010  59.1110001  92.5410004
  63.5880013  60.4290009  91.7710037  62.5800018  59.1059990  90.3840027
  61.5610008  58.6889992  90.2360001  63.2900009  58.2529984  90.4290009
  62.9700012  59.9749985  89.1800003  64.0120010  60.3300018  89.3270035
  62.3069992  60.8660011  89.1330032  62.8820000  59.2299995  87.8430023
  61.8310013  58.9169998  87.6660004  63.5070000  58.3129997  87.9020004
  63.3680000  60.0769997  86.6610031  64.4430008  60.3100014  86.8190002
  62.8050003  61.0340004  86.6419983  63.2140007  59.3930016  85.2979965
  62.1349983  59.2700005  85.0640030  63.6590004  58.3759995  85.3580017
  63.8919983  60.1650009  84.1579971  64.9430008  60.3800011  84.4459991
  63.3610001  61.1339989  84.0419998  63.8820000  59.4700012  82.7910004
  62.8330002  59.2000008  82.5449982  64.2269974  60.1990013  82.0260010
  64.7440033  58.2220001  82.7009964  64.6019974  57.7169991  81.7220001
  64.4660034  57.5130005  83.5090027  65.8190002  58.4760017  82.8140030
  66.0439987  60.5180016  97.8850021  66.4830017  59.6329994  98.3929977
  66.2959976  61.4020004  98.5090027  66.7470016  60.7330017  96.5250015
  67.8410034  60.8100014  96.7070007  66.4179993  61.7089996  96.1080017
  66.5090027  59.6559982  95.4580002  65.4229965  59.6129990  95.2249985
  66.8209991  58.6590004  95.8359985  67.2369995  59.9710007  94.1449966
  68.3369980  59.9570007  94.3030014  66.9589996  61.0009995  93.8359985
  66.8560028  59.0110016  93.0130005  67.2539978  57.9970016  93.2330017
  65.7480011  58.9350014  92.9700012  67.3580017  59.4840012  91.6429977
  68.4660034  59.5660019  91.6569977  66.9449997  60.4959984  91.4440002
  66.9280014  58.5470009  90.5100021  67.3759995  57.5439987  90.6750031
  65.8229980  58.4269981  90.5380020  67.3290024  59.0470009  89.1179962
  66.9049988  60.0620003  88.9599991  68.4359970  59.1250000  89.0640030
  66.8229980  58.1209984  88.0059967  65.7129974  58.0979996  88.0459976
  67.1819992  57.0870018  88.1969986  67.2630005  58.5390015  86.5989990
  66.9440002  59.5870018  86.4140015  68.3730011  58.5040016  86.5520020
  66.6959991  57.6430016  85.5049973  67.0879974  57.9339981  84.5070038
  66.9619980  56.5810013  85.6949997  65.5859985  57.7029991  85.4820023
  62.4469986  55.7260017  98.4270020  61.7949982  56.7470016  98.2119980
  62.8569984  54.7700005  97.3119965  63.7929993  54.2550011  97.6179962
  62.0600014  54.0110016  97.1589966  63.1339989  55.5509987  96.0080032
  63.7639999  56.4269981  96.2699966  61.8839989  55.9160004  95.4020004
  61.9150009  57.0550003  94.7119980  62.8260002  57.8730011  94.7460022
  60.5000000  57.4020004  94.2210007  60.5649986  58.3479996  93.6439972
  59.8689995  57.5769997  95.1190033  59.8769989  56.2970009  93.3460007
  58.8040009  56.5410004  93.1979980  59.9220009  55.3139992  93.8619995
  60.5029984  56.1769981  91.9509964  61.5470009  55.8059998  92.0319977
  60.5289993  57.1839981  91.4830017  59.6839981  55.2449989  91.0459976
  58.6360016  55.6150017  91.0390015  59.6739998  54.2220001  91.4789963
  60.1549988  55.1689987  89.5849991  61.1370010  54.6500015  89.5370026
  60.2900009  56.1990013  89.1920013  59.1329994  54.4329987  88.7050018
  58.1650009  54.9749985  88.7649994  58.9679985  53.4220009  89.1350021
  59.5239983  54.2739983  87.2259979  59.4599991  53.1930008  86.9779968
  60.5800018  54.5830002  87.0699997  58.6059990  55.0359993  86.2559967
  58.8779984  56.1129990  86.2610016  57.5579987  54.9490013  86.6159973
  58.6370010  54.4809990  84.8229980  58.2890015  53.4259987  84.8450012
  59.6839981  54.4889984  84.4540024  57.7589989  55.2680016  83.8389969
  56.7459984  55.3909988  84.2799988  58.1949997  56.2820015  83.7190018
  57.6180000  54.6199989  82.4639969  56.9959984  53.7019997  82.5260010
  57.1419983  55.3219986  81.7460022  58.6049995  54.3170013  82.0550003
  63.9389992  54.6710014  95.0169983  63.3440018  53.7630005  94.7819977
  64.8550034  54.3330002  95.5479965  64.3639984  55.3460007  93.6999969
  64.9010010  56.2929993  93.9260025  63.4539986  55.5989990  93.1149979
  65.2639999  54.4459991  92.8489990  64.7760010  53.4560013  92.7220001
  66.2129974  54.2779999  93.4020004  65.6470032  54.9869995  91.4670029
  66.3700027  54.2610016  91.0380020  66.1709976  55.9609985  91.5670013
  64.4929962  55.1269989  90.4619980  63.6759987  54.4210014  90.7229996
  64.0839996  56.1590004  90.5090027  64.9729996  54.7989998  89.0439987
  65.2050018  53.7130013  89.0179977  65.9160004  55.3530006  88.8440018
  63.9920006  55.1080017  87.9110031  63.8440018  56.2080002  87.8639984
  63.0110016  54.6279984  88.1149979  64.5179977  54.6160011  86.5550003
  65.5889969  54.9010010  86.4680023  64.4690018  53.5060005  86.5289993
  63.7760010  55.2000008  85.3489990  62.6990013  54.9329987  85.4000015
  63.8590012  56.3059998  85.3990021  64.3440018  54.7649994  83.9909973
  65.4459991  54.9000015  84.0019989  63.9329987  55.4519997  83.2210007
  64.0029984  53.3370018  83.5869980  64.3929977  52.6230011  84.3430023
  62.9020004  53.2080002  83.5220032  64.4550018  53.0880013  82.6029968
  59.0769997  52.2770004  96.5540009  58.6119995  51.3149986  96.2509995
  60.0019989  52.0099983  97.6050034  59.6739998  51.4720001  98.3300018
  59.8100014  52.8110008  95.3050003  60.3800011  53.7280006  95.5680008
  59.0429993  53.0909996  94.5520020  60.7550011  51.7750015  94.6719971
  60.2140007  50.8089981  94.5830002  61.6139984  51.6180000  95.3590012
  61.2869987  52.1559982  93.2799988  61.8289986  53.1230011  93.3420029
  60.4350014  52.2939987  92.5810013  62.2319984  51.0800018  92.7239990
  61.6809998  50.1209984  92.6230011  63.0429993  50.9210014  93.4660034
  62.9029999  51.4160004  91.3830032  63.4580002  52.3750000  91.4629974
  63.6549988  50.6220016  91.1900024  61.9850006  51.4749985  90.1569977
  61.4420013  52.4440002  90.1439972  61.2340012  50.6580009  90.2190018
  62.7859993  51.3059998  88.8570023  63.3199997  50.3330002  88.9049988
  63.5589981  52.1010017  88.7910004  61.9319992  51.3330002  87.5849991
  61.0309982  50.7010002  87.7369995  61.5940018  52.3750000  87.4000015
  62.6870003  50.8149986  86.3550034  63.5789986  51.4519997  86.1760025
  63.0439987  49.7830009  86.5630035  61.8320007  50.7960014  85.0849991
  60.8779984  50.2669983  85.2959976  61.5810013  51.8450012  84.8180008
  62.5200005  50.1250000  83.9000015  61.8909988  50.1940002  82.9869995
  63.4949989  50.6180000  83.6989975  62.7150002  49.0530014  84.1169968
  57.5709991  58.5600014  98.6569977  58.6250000  59.1669998  98.8600006
  56.5050011  59.1080017  97.7200012  56.1479988  60.0940018  98.0869980
  55.6440010  58.4049988  97.7119980  57.1020012  59.2070007  96.3079987
  57.8559990  58.4039993  96.1600037  57.7229996  60.4790001  96.1389999
  58.1949997  60.5989990  95.3119965  56.0299988  59.0180016  95.2180023
  55.3610001  59.9039993  95.1729965  55.4099998  58.1380005  95.4950027
  56.6520004  58.7309990  93.8460007  57.3930016  57.9129982  93.9700012
  57.2010002  59.6300011  93.4909973  55.6349983  58.2929993  92.7870026
  54.9790001  59.1539993  92.5350037  54.9930000  57.4889984  93.2050018
  56.3030014  57.7659988  91.5090027  55.5139999  57.5209999  90.7669983
  56.8470001  56.8260002  91.7440033  57.2960014  58.7570000  90.8909988
  56.8019981  59.7490005  90.8130035  58.1790009  58.8670006  91.5569992
  57.7799988  58.3429985  89.4990005  56.8930016  58.1990013  88.8450012
  58.3219986  57.3750000  89.5550003  58.6879997  59.4049988  88.8720016
  58.1839981  60.3870010  88.9970016  59.6590004  59.4550018  89.4079971
  58.9249992  59.1780014  87.3759995  59.6829987  58.3810005  87.2170029
  57.9700012  58.8240013  86.9319992  59.3250008  60.4659996  86.6510010
  58.6469994  61.2709999  87.0059967  60.3639984  60.7589989  86.9160004
  59.1640015  60.3730011  85.1350021  60.0740013  59.9259987  84.6809998
  58.3199997  59.6809998  84.9240036  58.8479996  61.7150002  84.4840012
  58.6100006  61.5589981  83.4100037  57.9659996  62.1899986  84.9649963
  59.7150002  62.4049988  84.5599976  65.1699982  57.9109993 107.2519989
  65.4879990  58.8709984 108.0110016  65.9619980  57.0429993 106.7860031
  63.6269989  57.5530014 107.1770020  61.4230003  58.4339981 107.5550003
  61.0979996  57.9150009 106.6279984  62.8289986  58.7430000 107.4329987
  63.3330002  56.4510002 108.2160034  63.7809982  56.7739983 109.1800003
  63.8549995  55.5180016 107.9130020  61.8790016  56.1710014 108.4540024
  61.4580002  55.7319984 107.5240021  61.7739983  55.2299995 109.5360031
  61.1479988  57.4760017 108.7180023  60.0569992  57.2639999 108.7099991
  61.4729996  58.0470009 109.9919968  61.1290016  57.4749985 110.6829987
  60.6150017  59.7280006 107.6429977  60.9179993  60.2709999 108.5630035
  59.2029991  59.4469986 107.7129974  58.7729988  60.2540016 107.4209976
  60.8810005  60.6160011 106.4339981  61.9729996  60.7789993 106.3040009
  60.5159988  60.1090012 105.5149994  60.2309990  61.8969994 106.5650024
  60.8580017  62.5070000 106.9589996  59.3600006  54.8330002 109.2979965
  58.6790009  54.6100006 108.2590027  58.9760017  55.4599991 110.3270035
  60.8009987  54.1990013 109.3840027  62.3359985  52.6720009 108.3130035
  63.1329994  53.4379997 108.4229965  61.0639992  53.3580017 108.2259979
  60.9399986  53.3790016 110.6809998  60.0999985  52.6529999 110.7160034
  60.8240013  54.0530014 111.5569992  62.2319984  52.6360016 110.7770004
  63.0690002  53.3660011 110.7939987  62.2639999  51.8969994 111.9970016
  62.6290016  52.4389992 112.7009964  62.4199982  51.7610016 109.5449982
  63.4440002  51.3330002 109.5920029  61.4879990  50.6699982 109.4779968
  61.5839996  50.1349983 110.2689972  62.6090012  51.9440002 107.0000000
  61.8170013  51.1809998 106.8460007  63.8889999  51.2869987 107.0370026
  64.1220016  51.1730003 106.1129990  62.5960007  52.9119987 105.8219986
  61.6349983  53.4700012 105.8050003  63.4129982  53.6559982 105.9349976
  62.7420006  52.2039986 104.5759964  62.7029991  52.8520012 103.8679962
 139.0429993  79.9319992 104.5670013 139.4830017  78.2490005 105.7360001
 139.7859955  79.1080017 104.6200027 140.7870026  79.5719986 104.7529984
 139.7760010  78.3339996 103.3000031 138.4799957  77.7369995 103.1139984
 140.5350037  77.5289993 103.4020004 138.5160065  76.7939987 102.0360031
 139.3990021  76.1360016 102.1839981 137.3950043  75.9260025 101.9380035
 136.2059937  76.2750015 102.6709976 136.4420013  76.6969986 103.6709976
 135.6640015  75.3259964 102.8730011 140.1179962  79.1800003 102.0609970
 139.3899994  80.0179977 102.0299988 141.4689941  79.6460037 102.2020035
 141.9019928  81.2639999 102.2910004 143.3439941  81.2699966 102.8150024
 140.9539948  81.9759979 103.2649994 141.8269958  81.8560028 100.8799973
 139.9640045  78.3690033 100.7600021 140.0099945  79.2900009  99.6549988
 140.8179932  77.6579971 100.7570038 140.6629944  78.9000015  98.5630035
 141.2910004  77.8539963  98.4509964 140.2830048  79.7679977  97.3750000
 139.1950073  79.9889984  97.4209976 140.4889984  79.1849976  96.4520035
 138.6940002  77.5009995 100.7060013 137.8249969  78.1819992 100.5910034
 138.6710052  76.5270004  99.6080017 138.9409943  75.5960007  99.8430023
 134.8690033  76.6849976 100.5240021 135.7940063  76.7480011  99.9130020
 134.4380035  75.3199997 100.5189972 133.5930023  75.2180023 100.9629974
 135.2180023  77.1790009 101.9290009 134.2779999  77.1589966 102.5210037
 135.6750031  78.5490036 101.9540024 134.8589935  79.4830017 101.2089996
 135.5310059  80.3410034 100.9960022 133.7200012  79.8860016 101.9629974
 134.4309998  81.2369995 104.0380020 134.2899933  82.4120026 101.7809982
 132.1940002  81.6559982 102.9440002 133.6799927  81.3649979 102.7139969
 133.8240051  77.6149979  99.9469986 133.0229950  77.7020035 100.7119980
 133.1309967  77.1839981  98.7699966 133.8329926  76.9140015  97.6709976
 135.0260010  77.1080017  97.5329971 132.8569946  76.8180008  96.5059967
 133.0919952  77.6250000  95.7799988 131.8190002  76.9660034  96.8750000
 134.4640045  78.9779968  99.8239975 135.4190063  78.8209991  99.2770004
 133.6589966  79.9280014  99.0719986 132.6699982  79.8140030  99.1169968
 141.1280060  81.0469971  97.4100037 140.9790039  81.5400009  98.3939972
 140.7270050  81.9270020  96.3519974 139.5319977  82.4800034  96.4489975
 138.8329926  82.5019989  97.4520035 139.2929993  83.3529968  95.2099991
 140.1629944  84.0350037  95.0970001 138.3890076  83.9710007  95.4010010
 139.0989990  82.5319977  93.9110031 138.1950073  81.8919983  94.0009995
 139.9750061  81.8669968  93.7539978 138.9490051  83.4530029  92.6890030
 139.8780060  84.0540009  92.5869980 138.1130066  84.1600037  92.8759995
 138.6869965  82.7389984  91.3489990 138.6089935  83.5250015  90.5680008
 137.7109985  82.2089996  91.3809967 139.7870026  81.7480011  90.9329987
 139.5870056  80.7730026  91.4270020 140.7709961  82.1100006  91.3000031
 139.8910065  81.5400009  89.4100037 138.8730011  81.4349976  88.9789963
 140.4400024  80.5940018  89.2180023 140.6569977  82.6740036  88.7040024
 141.6880035  82.7109985  89.1159973 140.1640015  83.6409988  88.9420013
 140.7400055  82.5380020  87.1750031 139.7089996  82.4990005  86.7639999
 141.2500000  81.5889969  86.9049988 141.4839935  83.7229996  86.5350037
 142.5540009  83.6890030  86.8320007 141.0509949  84.6600037  86.9459991
 141.3789978  83.7779999  85.0029984 140.3059998  83.7559967  84.7160034
 141.8600006  82.8759995  84.5690002 142.0200043  85.0400009  84.4010010
 143.0989990  85.0709991  84.6640015 141.5319977  85.9260025  84.8610001
 141.8630066  85.1500015  82.8750000 140.7969971  84.9710007  82.6190033
 142.1049957  86.1910019  82.5719986 142.7440033  84.1880035  82.0749969
 142.5919952  84.3349991  80.9840012 142.4929962  83.1360016  82.3270035
 143.8170013  84.3570023  82.3089981 142.6490021  80.7689972  97.2509995
 142.9109955  79.7679977  97.6559982 143.1770020  81.5189972  97.8769989
 143.2180023  80.9039993  95.8219986 144.3170013  80.7389984  95.8509979
 143.0500031  81.9509964  95.4899979 142.6100006  79.9660034  94.7699966
 141.5010071  80.0299988  94.7890015 142.8970032  78.9160004  94.9929962
 143.0480042  80.3320007  93.3479996 144.1569977  80.3059998  93.2919998
 142.7220001  81.3690033  93.1179962 142.4689941  79.3850021  92.2919998
 142.7460022  78.3430023  92.5579987 141.3600006  79.4520035  92.2990036
 142.9980011  79.7020035  90.8919983 144.1089935  79.7180023  90.9240036
 142.6529999  80.7149963  90.5950012 142.5590057  78.6869965  89.8330002
 142.9450073  77.6809998  90.1029968 141.4490051  78.6309967  89.8089981
 143.0700073  79.0770035  88.4440002 142.6119995  80.0469971  88.1539993
 144.1699982  79.2269974  88.4929962 142.7649994  78.0319977  87.3669968
 141.6719971  77.8310013  87.3529968 143.2799988  77.0790024  87.6139984
 143.2050018  78.5139999  85.9840012 142.6499939  79.4479980  85.7529984
 144.2859955  78.7669983  86.0169983 142.9519958  77.5210037  84.8580017
 143.3220062  77.9309998  83.8939972 143.4700012  76.5579987  85.0550003
 141.8619995  77.3290024  84.7610016 138.1770020  76.7750015  98.3820038
 137.8710022  77.9089966  98.0230026 137.9819946  75.5579987  97.4850006
 138.3990021  74.6589966  97.9869995 136.8959961  75.3850021  97.3249969
 138.6829987  75.7180023  96.1119995 139.7449951  75.9889984  96.2919998
 137.9700012  76.7020035  95.3450012 138.7169952  77.4599991  94.5380020
 139.9389954  77.4469986  94.4950027 137.8609924  78.6050034  93.9800034
 138.5130005  79.2760010  93.3809967 137.4779968  79.1780014  94.8519974
 136.6670074  78.1090012  93.1330032 135.8990021  78.9110031  93.1370010
 136.2039948  77.2089996  93.5899963 137.0030060  77.8190002  91.6600037
 137.7469940  76.9970016  91.5820007 137.4550018  78.7320023  91.2139969
 135.7389984  77.4520035  90.8679962 134.9389954  78.1660004  91.1559982
 135.4029999  76.4349976  91.1640015 135.8820038  77.5169983  89.3399963
 136.6199951  76.7620010  88.9929962 136.2610016  78.5240021  89.0619965
 134.5350037  77.2890015  88.6299973 133.7669983  77.9110031  89.1370010
 134.2420044  76.2239990  88.7429962 134.5310059  77.6679993  87.1409988
 135.2769928  77.0520020  86.5950012 134.8339996  78.7330017  87.0469971
 133.1470032  77.4800034  86.4919968 132.3869934  78.0230026  87.0930023
 132.8939972  76.3980026  86.5270004 133.0449982  77.9530029  85.0309982
 132.0720062  77.6190033  84.6110001 133.8489990  77.4700012  84.4349976
 133.1510010  79.4749985  84.8499985 132.3769989  79.9769974  85.4700012
 134.1439972  79.7979965  85.2289963 133.0220032  79.9410019  83.4000015
 132.0220032  79.6800003  82.9919968 133.1609955  81.0400009  83.3280029
 133.7940063  79.4440002  82.7740021 138.6399994  74.3629990  95.3659973
 137.5780029  74.0680008  95.2259979 139.1130066  73.5940018  96.0139999
 139.3439941  74.3259964  94.0100021 140.4239960  74.5479965  94.1490021
 138.9029999  75.1050034  93.3519974 139.1999969  72.9639969  93.3069992
 138.1179962  72.7590027  93.1650009 139.6150055  72.1610031  93.9530029
 139.8659973  72.9020004  91.9229965 139.5540009  71.9550018  91.4339981
 140.9709930  72.8690033  92.0410004 139.4709930  74.0660019  91.0179977
 138.3710022  74.2220001  91.0609970 139.9579926  75.0009995  91.3679962
 139.8609924  73.8470001  89.5550003 139.3950043  72.9069977  89.1890030
 140.9600067  73.7320023  89.4489975 139.3999939  74.9990005  88.6419983
 139.9109955  75.9380035  88.9459991 138.3079987  75.1510010  88.7839966
 139.6600037  74.7279968  87.1630020 140.7339935  74.4759979  87.0299988
 139.0720062  73.8359985  86.8580017 139.3079987  75.9000015  86.2379990
 138.2109985  76.0719986  86.2549973 139.8220062  76.8079987  86.6190033
 139.7539978  75.6419983  84.7860031 140.8289948  75.3629990  84.8170013
 139.6390076  76.5979996  84.2310028 138.9869995  74.5520020  84.0390015
 139.0700073  73.5699997  84.5520020 139.3829956  74.4400024  83.0070038
 137.9190063  74.8529968  83.9940033 132.9510040  75.4489975  95.8140030
 132.0890045  75.3880005  95.1149979 132.7910004  74.4089966  96.7710037
 133.6009979  74.0569992  97.1480026 134.2160034  75.2289963  94.9520035
 135.1329956  75.2829971  95.5759964 134.2610016  76.0619965  94.2190018
 134.2010040  73.9039993  94.1669998 133.1840057  73.7519989  93.7470016
 134.3990021  73.0619965  94.8639984 135.2039948  73.8460007  93.0029984
 136.2339935  74.0390015  93.3720016 134.9479980  74.6490021  92.2789993
 135.1510010  72.4869995  92.2890015 134.0879974  72.2679977  92.0530014
 135.5079956  71.7050018  92.9929962 135.9470062  72.3720016  90.9789963
 137.0189972  72.6039963  91.1589966 135.8860016  71.3140030  90.6460037
 135.4149933  73.2480011  89.8359985 135.6260071  74.3160019  90.0569992
 134.3130035  73.1230011  89.7770004 136.0169983  72.8740005  88.4729996
 135.8190002  71.7959976  88.2890015 137.1179962  73.0210037  88.5039978
 135.4290009  73.6809998  87.3089981 134.3220062  73.6139984  87.3590012
 135.7100067  74.7500000  87.4240036 135.8750000  73.1809998  85.9280014
 136.9779968  73.2789993  85.8369980 135.6190033  72.1039963  85.8369980
 135.1959991  73.9560013  84.7910004 134.1029968  73.9710007  84.9919968
 135.5520020  75.0070038  84.8229980 135.4250031  73.3860016  83.3899994
 134.9149933  74.0220032  82.6340027 136.5079956  73.3519974  83.1460037
 135.0130005  72.3560028  83.3180008 134.1990051  80.8659973  98.2789993
 135.4100037  81.0899963  98.2620010 133.2319946  81.6060028  97.3690033
 133.0290070  82.6220016  97.7699966 132.2760010  81.0410004  97.3440018
 133.8220062  81.6620026  95.9479980 134.4700012  80.7770004  95.7659988
 134.5899963  82.8539963  95.8020020 135.1089935  82.9120026  94.9970016
 132.7230072  81.6330032  94.8679962 132.1360016  82.5759964  94.8909988
 132.0299988  80.7969971  95.1029968 133.2890015  81.3909988  93.4609985
 133.9499969  80.4990005  93.4929962 133.9129944  82.2600021  93.1610031
 132.2030029  81.1480026  92.4059982 131.6069946  82.0749969  92.2659988
 131.5180054  80.3580017  92.7809982 132.7790070  80.6869965  91.0579987
 131.9440002  80.4079971  90.3809967 133.3910065  79.7760010  91.2289963
 133.6479950  81.7429962  90.3590012 133.0050049  82.5989990  90.0650024
 134.4219971  82.1250000  91.0589981 134.3690033  81.1930008  89.1220016
 133.6269989  80.7030029  88.4560013 135.0959930  80.4150009  89.4400024
 135.0989990  82.2819977  88.3259964 134.3399963  83.0279999  88.0070038
 135.8379974  82.8040009  88.9720001 135.8020020  81.7340012  87.0780029
 136.7910004  81.3089981  87.3499985 135.1820068  80.9049988  86.6760025
 135.9470062  82.7809982  85.9670029 134.9499969  83.2369995  85.7900009
 136.6349945  83.5910034  86.2919998 136.4290009  82.1880035  84.6389999
 137.4770050  81.8339996  84.7509995 135.8009949  81.3010025  84.4079971
 136.3390045  83.1630020  83.4700012 136.7239990  82.6969986  82.5380020
 135.2810059  83.4530029  83.2959976 136.9259949  84.0839996  83.6770020
 141.5220032  78.7249985 107.0479965 142.0899963  79.6269989 107.7259979
 142.0540009  77.6480026 106.6549988 139.9400024  78.7750015 106.9850006
 138.0249939  80.1890030 107.3550034 137.5800018  79.7919998 106.4169998
 139.4649963  80.1279984 107.2340012 139.3809967  77.8000031 108.0360031
 139.8670044  78.0279999 109.0080032 139.6790009  76.7659988 107.7600021
 137.8950043  77.8759995 108.2239990 137.4140015  77.5660019 107.2720032
 137.5119934  76.9840012 109.2839966 137.5010071  79.3119965 108.4970016
 136.3910065  79.3679962 108.4739990 137.9360046  79.7710037 109.7839966
 137.4680023  79.2799988 110.4629974 137.5919952  81.6490021 107.4700012
 138.0729980  82.0899963 108.3690033 136.1620026  81.7549973 107.6139984
 135.9420013  82.6200027 107.2600021 138.0269928  82.4309998 106.2369995
 139.1159973  82.2969971 106.0599976 137.5010071  82.0319977 105.3440018
 137.7449951  83.8379974 106.3750000 138.5440063  84.2689972 106.6869965
 135.1190033  76.9980011 108.7129974 134.4799957  76.7610016 107.6510010
 134.7460022  77.7529984 109.6559982 136.4049988  76.1299973 109.0039978
 137.8020020  74.3430023 108.1770020 138.6849976  74.9779968 108.4029999
 136.6820068  75.2190018 107.9029999 136.2230072  75.3389969 110.3130035
 135.2810059  74.7570038 110.2300034 136.0939941  76.0510025 111.1559982
 137.3509979  74.4039993 110.6009979 138.2830048  74.9940033 110.7310028
 137.0959930  73.7119980 111.8219986 137.4640045  74.2030029 112.5609970
 137.5679932  73.4700012 109.4169998 138.4929962  72.8870010 109.6149979
 136.4940033  72.5370026 109.2239990 136.4160004  71.9850006 110.0059967
 138.1589966  73.5410004 106.9290009 137.3209991  72.8509979 106.6949997
 139.3549957  72.7699966 107.1600037 139.6600037  72.5210037 106.2839966
 138.3860016  74.4580002 105.7310028 137.4839935  75.0879974 105.5729980
 139.2400055  75.1419983 105.9250031 138.6300049  73.6979980 104.5309982
 138.2599945  74.1920013 103.7949982  47.0559998 119.8209991 104.3320007
  47.9410019 121.2519989 105.5770035  47.1590004 120.9240036 104.4140015
  46.1320000 121.3379974 104.5130005  47.7779999 121.4789963 103.1289978
  49.0309982 120.8270035 102.8619995  47.9609985 122.5619965 103.2969971
  49.7439995 121.5410004 101.8420029  49.7719994 122.6200027 102.1050034
  51.0810013 121.1279984 101.5979996  51.6489983 120.1689987 102.4990005
  51.1599998 120.1719971 103.4970016  52.7039986 120.4660034 102.6750031
  46.8740005 121.3109970 101.8980026  46.6320000 120.2279968 101.8580017
  45.7019997 122.1080017 102.1139984  44.1440010 121.6050034 101.7809982
  43.2340012 122.5739975 102.5449982  43.9770012 120.1679993 102.2929993
  43.9230003 121.7259979 100.2689972  47.5639992 121.6989975 100.5839996
  46.8660011 121.0289993  99.5260010  47.4990005 122.8059998 100.5139999
  46.5449982 121.7060013  98.4309998  46.7910004 122.8960037  98.2409973
  46.3670006 120.7080002  97.2959976  46.8370018 119.7409973  97.5749969
  46.8860016 121.1060028  96.3980026  49.0550003 121.3700027 100.5049973
  49.1380005 120.2870026 100.2750015  49.7449989 122.1340027  99.4599991
  50.1559982 122.9990005  99.7389984  52.1889992 118.7519989 100.4469986
  51.4939995 119.3450012  99.8140030  53.4949989 119.3349991 100.3720016
  53.6980019 119.5650024  99.4629974  51.6689987 118.7669983 101.8889999
  52.3839989 118.1770020 102.5009995  50.3779984 118.1240005 102.0250015
  50.3330002 116.7760010 101.5000000  49.2519989 116.5189972 101.4710007
  51.0629997 115.8799973 102.3359985  49.1430016 115.0960007 103.8779984
  49.8520012 113.6370010 101.9189987  51.3849983 113.9120026 103.9150009
  50.3139992 114.5719986 103.0410004  52.1940002 117.3170013  99.9639969
  52.8019981 116.7450027 100.6979980  52.8590012 117.1100006  98.7170029
  52.3759995 117.6520004  97.6060028  51.2529984 118.0940018  97.4440002
  53.4749985 117.5879974  96.5490036  53.0639992 117.1159973  95.6309967
  54.3030014 116.9509964  96.9290009  50.7820015 116.7850037 100.0419998
  50.1479988 117.5550003  99.5510025  50.6010017 115.5270004  99.3310013
  51.3909988 114.9199982  99.2890015  44.8740005 120.5479965  97.0059967
  44.3450012 120.3160019  97.9560013  44.6800003 119.4810028  96.0670013
  44.8639984 118.2490005  96.5189972  45.0050011 117.9390030  97.6940002
  44.5449982 117.2509995  95.3990021  43.4809990 117.3880005  95.1100006
  44.6650009 116.2300034  95.8199997  45.4539986 117.4150009  94.1620026
  46.5180016 117.2919998  94.4560013  45.3330002 118.4430008  93.7590027
  45.1189995 116.4039993  93.0479965  44.0779991 116.5960007  92.7099991
  45.1529999 115.3720016  93.4599991  46.0439987 116.4759979  91.8170013
  45.6349983 115.8109970  91.0270004  47.0540009 116.1009979  92.0859985
  46.1899986 117.8909988  91.2549973  46.7500000 118.4970016  91.9990005
  45.1850014 118.3509979  91.1429977  46.9329987 117.9909973  89.9140015
  47.8279991 117.3330002  89.9110031  47.3040009 119.0360031  89.8529968
  46.0509987 117.7630005  88.6689987  45.0040016 118.0260010  88.9349976
  46.0639992 116.6900024  88.3820038  46.4790001 118.6669998  87.5039978
  47.5159988 118.4079971  87.2020035  46.4970016 119.7070007  87.8960037
  45.5839996 118.6559982  86.2539978  44.5200005 118.7369995  86.5630035
  45.7270012 117.7080002  85.6920013  45.9300003 119.8450012  85.3420029
  47.0060005 119.7819977  85.0690002  45.8139992 120.7679977  85.9489975
  45.0789986 120.0199966  84.0749969  45.0830002 121.1039963  83.8300018
  44.0229988 119.7419968  84.2779999  45.5810013 119.2890015  82.8180008
  45.4599991 118.1940002  82.9629974  44.9189987 119.5810013  81.9759979
  47.0270004 119.5719986  82.3949966  47.2379990 119.1029968  81.4100037
  47.2120018 120.6640015  82.3089981  47.7439995 119.1559982  83.1350021
  44.2490005 121.8560028  96.4380035  44.9770012 122.6930008  96.5110016
  43.3919983 122.1090012  97.0979996  43.7140007 121.8030014  94.9899979
  43.1010017 122.7119980  94.8099976  43.0410004 120.9240036  94.9020004
  44.7750015 121.7269974  93.8799973  45.5009995 120.9169998  94.1090012
  45.3349991 122.6849976  93.8410034  44.1500015 121.4430008  92.5049973
  43.4039993 122.2320023  92.2710037  43.6069984 120.4749985  92.5640030
  45.1549988 121.3779984  91.3450012  45.6629982 122.3590012  91.2310028
  45.9319992 120.6259995  91.6009979  44.4889984 120.9720001  90.0169983
  43.4679985 120.5940018  90.2360001  45.0670013 120.1380005  89.5660019
  44.4000015 122.0999985  88.9810028  44.0400009 123.0139999  89.5000000
  45.4169998 122.3229980  88.5930023  43.4599991 121.7860031  87.8030014
  43.9920006 121.0979996  87.1110001  42.5569992 121.2559967  88.1760025
  43.0009995 123.0329971  87.0270004  43.8699989 123.7109985  86.8889999
  42.2449989 123.5800018  87.6299973  42.4119987 122.7220001  85.6439972
  43.1710014 122.1549988  85.0640030  41.5260010 122.0640030  85.7689972
  42.0099983 123.9680023  84.8479996  41.6269989 123.6800003  83.8450012
  41.2130013 124.5319977  85.3769989  42.8849983 124.6380005  84.7080002
  49.9259987 121.6969986  98.2009964  49.4420013 120.6389999  97.8099976
  50.7789993 122.5800018  97.2910004  51.0390015 123.5159988  97.8300018
  51.7169991 122.0380020  97.0429993  50.0079994 122.9329987  96.0000000
  49.0169983 123.3339996  96.3010025  49.9039993 121.7360001  95.2080002
  48.7690010 121.5989990  94.5169983  47.8549995 122.4140015  94.5179977
  48.5559998 120.1210022  94.1520004  47.6609993 120.0559998  93.4970016
  48.3279991 119.5940018  95.1029968  49.7659988 119.4440002  93.4769974
  49.6329994 118.3470001  93.5849991  50.7089996 119.7119980  94.0009995
  49.9070015 119.7369995  91.9759979  50.1279984 120.8130035  91.8130035
  48.9420013 119.5039978  91.4769974  51.0120010 118.8779984  91.3349991
  50.8359985 117.8190002  91.6200027  51.9970016 119.1809998  91.7490005
  51.0629997 118.9479980  89.8020020  51.2750015 119.9919968  89.4860001
  50.0660019 118.6679993  89.3990021  52.1180000 118.0149994  89.1809998
  51.9780006 116.9929962  89.5950012  53.1290016 118.3710022  89.4729996
  52.0299988 117.9270020  87.6500015  52.1119995 118.9509964  87.2279968
  51.0289993 117.5370026  87.3649979  53.1160011 117.0490036  87.0039978
  53.0050011 115.9990005  87.3519974  54.1040001 117.4219971  87.3509979
  53.1100006 117.0889969  85.4639969  54.0620003 116.6610031  85.0839996
  53.0639992 118.1520004  85.1449966  51.9469986 116.3320007  84.8079987
  52.0169983 115.2539978  85.0709991  50.9939995 116.7119980  85.2330017
  51.8940010 116.4779968  83.2880020  52.8100014 116.0559998  82.8219986
  51.0120010 115.9400024  82.8769989  51.8139992 117.5490036  83.0029984
  50.7560005 124.0410004  95.2020035  51.7449989 123.6340027  94.9020004
  50.9370003 124.9079971  95.8730011  50.0180016 124.5339966  93.9430008
  49.0859985 125.0739975  94.2160034  49.7249985 123.6179962  93.3860016
  50.8650017 125.3769989  92.9769974  51.8409996 124.8590012  92.8560028
  51.0680008 126.3809967  93.4069977  50.2500000 125.5149994  91.5660019
  51.0279999 125.9400024  90.8970032  49.3969994 126.2269974  91.5859985
  49.7700005 124.1709976  90.9850006  50.4449997 123.3769989  91.3679962
  48.7519989 123.9440002  91.3679962  49.7879982 124.0490036  89.4580002
  50.7879982 124.3619995  89.0879974  49.0260010 124.7200012  89.0070038
  49.5460014 122.5950012  89.0199966  48.5419998 122.2669983  89.3669968
  50.2999992 121.9540024  89.5250015  49.6619987 122.3700027  87.5100021
  48.8629990 122.9440002  86.9950027  50.6399994 122.7610016  87.1569977
  49.5519981 120.8980026  87.0940018  50.4220009 120.3550034  87.5189972
  48.6259995 120.4509964  87.5149994  49.5620003 120.7050018  85.5749969
  50.4010010 121.3030014  85.1600037  48.6230011 121.1240005  85.1539993
  49.7200012 119.2590027  85.1230011  50.6669998 118.8430023  85.5279999
  48.8720016 118.6360016  85.4789963  49.7620010 119.1989975  84.0139999
  54.0219994 118.9970016  96.2539978  55.0279999 118.8629990  95.8010025
  54.1570015 119.7409973  97.4649963  54.6160011 120.5800018  97.3830032
  53.1580009 119.7760010  95.2350006  52.1720009 120.0289993  95.6800003
  52.9780006 119.0979996  94.3730011  53.8450012 121.0429993  94.6930008
  54.9049988 120.7949982  94.4749985  53.8209991 121.8450012  95.4609985
  53.2589989 121.5820007  93.3830032  52.1879997 121.8450012  93.5110016
  53.3079987 120.7760010  92.6200027  54.0270004 122.8079987  92.8649979
  55.1189995 122.6060028  92.8860016  53.8279991 123.6559982  93.5559998
  53.6240005 123.2200012  91.4440002  52.5180016 123.1520004  91.3649979
  53.9039993 124.2799988  91.2679977  54.2630005 122.3580017  90.3450012
  54.2459984 121.2919998  90.6559982  55.3240013 122.6640015  90.2220001
  53.5159988 122.4779968  89.0110016  53.3839989 123.5490036  88.7490005
  52.5040016 122.0390015  89.1429977  54.2010002 121.7620010  87.8379974
  55.1320000 122.3040009  87.5670013  54.4799995 120.7310028  88.1439972
  53.2760010 121.6750031  86.6179962  52.4070015 121.0370026  86.8880005
  52.8759995 122.6869965  86.3949966  53.9179993 121.1200027  85.3450012
  54.7220001 121.8150024  85.0210037  54.3839989 120.1370010  85.5699997
  52.9140015 120.9430008  84.2109985  53.4109993 120.6279984  83.2679977
  52.1800003 120.1569977  84.4869995  52.3639984 121.8889999  84.0210037
  49.5149994 115.3000031  98.5719986  48.4679985 115.9280014  98.7429962
  49.6590004 114.2639999  97.4649963  48.8790016 113.4820023  97.5849991
  50.6559982 113.7809982  97.5490036  49.5400009 114.9540024  96.0889969
  50.0940018 115.9179993  96.1060028  48.1689987 115.1969986  95.7910004
  48.0149994 115.6959991  94.9850006  50.1459999 114.0869980  94.9660034
  49.5900002 113.1269989  94.9089966  51.1959991 113.8519974  95.2440033
  50.1529999 114.7500000  93.5770035  50.6290016 115.7509995  93.6490021
  49.1090012 114.8970032  93.2279968  50.9129982 113.9120026  92.5380020
  50.4519997 112.9039993  92.4599991  51.9550018 113.7779999  92.9010010
  50.9640007 114.5569992  91.1449966  51.7570000 114.0510025  90.5540009
  51.2540016 115.6250000  91.2460022  49.6510010 114.4580002  90.3519974
  49.3839989 113.3850021  90.2399979  48.8330002 114.9570007  90.9140015
  49.7649994 115.0989990  88.9599991  50.6990013 114.7440033  88.4759979
  49.8510017 116.1999969  89.0849991  48.5880013 114.7969971  88.0199966
  48.5190010 113.6989975  87.8669968  47.6440010 115.1380005  88.4980011
  48.7389984 115.4889984  86.6559982  48.7280006 116.5889969  86.8059998
  49.7309990 115.2239990  86.2330017  47.6609993 115.1090012  85.6289978
  47.7070007 114.0139999  85.4520035  46.6590004 115.3509979  86.0429993
  47.8300018 115.8330002  84.2829971  47.6899986 116.9229965  84.4489975
  48.8750000 115.6829987  83.9359970  46.8769989 115.3629990  83.1849976
  47.0610008 115.9290009  82.2460022  47.0270004 114.2829971  82.9759979
  45.8190002 115.5240021  83.4860001  46.1160011 122.4110031 106.7870026
  45.0180016 122.1900024 107.3710022  46.5530014 123.5429993 106.4349976
  47.1749992 121.2320023 106.7860031  47.4389992 118.8690033 107.2099991
  48.0890007 118.7850037 106.3130035  46.5079994 119.9570007 107.0000000
  48.1949997 121.5090027 107.9039993  47.6320000 121.7180023 108.8389969
  48.7540016 122.4339981 107.6480026  49.1479988 120.3850021 108.1689987
  49.7680016 120.2389984 107.2590027  49.9799995 120.7300034 109.2900009
  48.3629990 119.1110001 108.4089966  49.0919991 118.2730026 108.4459991
  47.6510010 119.1289978 109.6529999  48.2859993 119.1859970 110.3710022
  46.6419983 117.5680008 107.3160019  45.9059982 117.6920013 108.1389999
  47.5019989 116.4509964 107.6269989  47.1399994 116.0299988 108.4110031
  45.8889999 117.2900009 106.0189972  45.3470001 118.1999969 105.6849976
  46.6199989 117.0360031 105.2220001  44.9430008 116.2099991 106.1610031
  44.1160011 116.5899963 106.4660034  51.7299995 119.0899963 108.7429962
  52.4290009 118.8669968 107.7180023  51.4080009 118.2440033 109.6259995
  51.3829994 120.5940018 109.0810013  51.6440010 122.8840027 108.3730011
  50.5589981 123.0179977 108.5709991  51.8650017 121.4909973 108.0410004
  51.9860001 120.9810028 110.4469986  53.0719986 120.7480011 110.4179993
  51.5379982 120.3460007 111.2399979  51.8079987 122.4250031 110.7860031
  50.7210007 122.6429977 110.8639984  52.4000015 122.6969986 112.0559998
  51.7379990 122.6370010 112.7490005  52.3629990 123.2949982 109.6650009
  52.0950012 124.3489990 109.8919983  53.7900009 123.2210007 109.5339966
  54.2019997 123.6969986 110.2590027  51.9669991 123.7809982 107.1809998
  53.0610008 123.7450027 106.9909973  51.5800018 125.1389999 107.4690018
  51.5589981 125.5770035 106.6149979  51.2319984 123.3130035 105.9290009
  51.4669991 122.2480011 105.7160034  50.1360016 123.3789978 106.0970001
  51.5810013 124.1050034 104.7760010  52.3750000 123.7310028 104.3889999
  88.3519974 134.6569977 104.8010025  88.5419998 132.9859924 106.0469971
  88.9660034 133.7359924 104.8960037  90.0220032 134.0579987 105.0230026
  88.8539963 132.9179993 103.6070023  87.4889984 132.5260010 103.3880005
  89.4769974 132.0079956 103.7440033  87.4049988 131.5679932 102.3219986
  88.1679993 130.7819977 102.5080032  86.1640015 130.8809967 102.2080002
  85.0380020 131.4400024 102.9069977  85.3330002 131.9259949 103.8610001
  84.3870010 130.5899963 103.2040024  89.3479996 133.6660004 102.3590012
  88.7300034 134.5859985 102.2779999  90.7409973 133.9510040 102.5640030
  91.4010010 135.4859924 102.5279999  92.5520020 135.4750061 103.5449982
  90.3280029 136.5019989 102.9280014  91.9440002 135.7279968 101.1200027
  89.1370010 132.8470001 101.0790024  89.3949966 133.7200012  99.9670029
  89.8610001 132.0070038 101.1399994  90.0100021 133.1979980  98.9100037
  90.4219971 132.0469971  98.8249969  89.8600006 134.1119995  97.7149963
  88.8420029 134.5570068  97.7259979  89.9649963 133.4969940  96.7959976
  87.7389984 132.2140045 100.9889984  87.0090027 133.0370026 100.8349991
  87.5839996 131.2539978  99.8909988  87.7040024 130.2929993 100.1279984
  83.7279968 131.7680054 100.7399979  84.6449966 131.5529938 100.1520004
  83.0329971 130.5290070 100.9359970  82.2009964 130.6580048 101.3960037
  84.1829987 132.3869934 102.0640030  83.2669983 132.5950012 102.6579971
  84.8619995 133.6529999 101.9089966  84.1849976 134.6049957 101.0569992
  84.9779968 135.3300018 100.7740021  83.1360016 135.2449951 101.7839966
  84.5800018 137.2169952 102.6679993  82.9240036 137.6210022 100.7809982
  82.0889969 137.1470032 103.1230011  83.1969986 136.8840027 102.0970001
  82.8809967 132.7819977  99.9960022  82.0960007 133.1150055 100.7080002
  82.1500015 132.3110046  98.8560028  82.8059998 131.6499939  97.9020004
  84.0159988 131.5709991  97.7949982  81.8010025 131.3229980  96.8000031
  81.9089966 132.0760040  95.9909973  80.7720032 131.3899994  97.2139969
  83.7570038 133.9839935  99.7239990  84.6819992 133.5760040  99.2630005
  83.1989975 134.9459991  98.7860031  82.2060013 135.0019989  98.7259979
  90.9550018 135.1779938  97.7900009  90.8860016 135.6739960  98.7819977
  90.7610016 136.1369934  96.7440033  89.7030029 136.9210052  96.8850021
  89.0780029 137.1040039  97.9209976  89.4550018 137.6690063  95.5749969
  90.4229965 138.0870056  95.2239990  88.7600021 138.5110016  95.7819977
  88.8580017 136.7319946  94.5049973  87.8489990 136.3880005  94.8190002
  89.5029984 135.8320007  94.4110031  88.7610016 137.3990021  93.1279984
  89.7789993 137.7149963  92.8150024  88.1340027 138.3119965  93.2020035
  88.1809998 136.4859924  92.0339966  88.1930008 137.0520020  91.0790024
  87.1200027 136.2489929  92.2649994  88.9469986 135.1629944  91.8529968
  88.6750031 134.4859924  92.6910019  90.0400009 135.3500061  91.9160004
  88.6510010 134.4479980  90.5289993  87.5530014 134.4360046  90.3560028
  88.9919968 133.3930054  90.5979996  89.3600006 135.1060028  89.3369980
  90.4599991 135.0290070  89.4769974  89.0899963 136.1829987  89.3140030
  88.9779968 134.4960022  87.9869995  87.8700027 134.4640045  87.9219971
  89.3470001 133.4499969  87.9229965  89.5009995 135.3119965  86.8000031
  90.6080017 135.2359924  86.7409973  89.2369995 136.3769989  86.9749985
  88.8679962 134.8930054  85.4690018  87.7689972 134.8359985  85.6210022
  89.2139969 133.8780060  85.1809998  89.1330032 135.8899994  84.3369980
  90.2020035 135.8600006  84.0350037  88.9179993 136.9100037  84.7210007
  88.2450027 135.6759949  83.1080017  87.2099991 135.4530029  83.4449997
  88.2080002 136.6260071  82.5339966  88.7300034 134.5800018  82.1770020
  88.0270004 134.4320068  81.3290024  88.8310013 133.6179962  82.7249985
  89.7229996 134.8540039  81.7630005  92.3919983 134.5980072  97.6750031
  92.4580002 133.6190033  98.1959991  93.0520020 135.3020020  98.2269974
  92.9899979 134.4689941  96.2549973  94.0350037 134.1049957  96.3529968
  93.0410004 135.4839935  95.8050003  92.2529984 133.5480042  95.2699966
  91.2119980 133.9129944  95.1330032  92.2060013 132.5149994  95.6750031
  92.9270020 133.5429993  93.8889999  93.9649963 133.1580048  93.9840012
  92.9899979 134.5959930  93.5400009  92.1740036 132.7339935  92.8229980
  92.1900024 131.6569977  93.0960007  91.1139984 133.0639954  92.7939987
  92.7829971 132.9219971  91.4260025  93.8529968 132.6219940  91.4509964
  92.7379990 133.9989929  91.1579971  92.0670013 132.1159973  90.3359985
  92.1409988 131.0330048  90.5729980  90.9879990 132.3820038  90.3290024
  92.6439972 132.3659973  88.9359970  92.5000000 133.4360046  88.6719971
  93.7360001 132.1600037  88.9489975  91.9889984 131.5019989  87.8529968
  90.9059982 131.7480011  87.8259964  92.0800018 130.4309998  88.1320038
  92.5770035 131.7180023  86.4540024  92.3929977 132.7740021  86.1610031
  93.6770020 131.5659943  86.4990005  91.9840012 130.7960052  85.3899994
  92.4079971 131.0299988  84.3899994  92.2070007 129.7339935  85.6269989
  90.8809967 130.9219971  85.3440018  87.2789993 131.5879974  98.6210022
  87.0510025 132.7510071  98.2939987  87.2649994 130.4409943  97.6119995
  87.9369965 129.6369934  97.9789963  86.2340012 130.0370026  97.5250015
  87.7760010 130.9210052  96.2350006  88.7210007 131.4799957  96.4059982
  86.7570038 131.7149963  95.6050034  87.2089996 132.7469940  94.8820038
  88.3759995 133.1109924  94.8270035  86.0339966 133.6779938  94.5500031
  86.4400024 134.5859985  94.0559998  85.5660019 133.9750061  95.5130005
  84.9909973 133.0119934  93.6399994  84.0869980 133.6580048  93.6320038
  84.6900024 132.0229950  94.0490036  85.4489975 132.8480072  92.1849976
  86.2720032 132.1040039  92.1200027  85.8379974 133.8240051  91.8229980
  84.2799988 132.4299927  91.2809982  83.4479980 133.1380005  91.4850006
  83.9290009 131.4109955  91.5540009  84.5589981 132.4869995  89.7730026
  85.2149963 131.6410065  89.4769974  85.0940018 133.4349976  89.5469971
  83.2610016 132.4429932  88.9509964  82.5810013 133.2400055  89.3199997
  82.7639999 131.4660034  89.1340027  83.4440002 132.6219940  87.4369965
  84.1549988 131.8520050  87.0699997  83.8840027 133.6210022  87.2279968
  82.1210022 132.4689941  86.6709976  81.4240036 133.2899933  86.9440002
  81.6539993 131.5209961  87.0120010  82.2590027 132.3829956  85.1439972
  81.6979980 131.4830017  84.8119965  83.3270035 132.2270050  84.8769989
  81.7020035 133.5879974  84.3779984  80.6449966 133.7319946  84.6880035
  82.2639999 134.5010071  84.6709976  81.7500000 133.4230042  82.8600006
  81.1419983 132.5469971  82.5500031  81.3460007 134.3280029  82.3560028
  82.7959976 133.2689972  82.5189972  88.1060028 129.7039948  95.3339996
  87.1800003 129.1089935  95.1809998  88.8359985 129.0599976  95.8690033
  88.6900024 130.0709991  93.9619980  89.5950012 130.6999969  94.1019974
  87.9380035 130.6790009  93.4150009  89.0459976 128.8509979  93.1070023
  88.1409988 128.2169952  92.9919968  89.8170013 128.2460022  93.6299973
  89.5540009 129.2149963  91.7040024  89.8430023 128.2760010  91.1859970
  90.4580002 129.8549957  91.7829971  88.5009995 129.9290009  90.8440018
  87.5350037 129.3880005  90.9359970  88.3509979 130.9629974  91.2229996
  88.8710022 129.9810028  89.3610001  88.8899994 128.9429932  88.9660034
  89.8889999 130.4129944  89.2480011  87.8919983 130.7949982  88.5130005
  87.9380035 131.8609924  88.8259964  86.8619995 130.4239960  88.6999969
  88.1780014 130.6920013  87.0130005  89.2300034 130.9909973  86.8190002
  88.0599976 129.6309967  86.7060013  87.2570038 131.5650024  86.1600037
  86.2050018 131.2879944  86.3850021  87.3990021 132.6300049  86.4440002
  87.5049973 131.4060059  84.6569977  87.3880005 130.3309937  84.4029999
  88.5550003 131.6959991  84.4369965  86.5619965 132.2310028  83.7860031
  85.5049973 131.9770050  84.0149994  86.7170029 133.3139954  83.9800034
  86.7509995 132.0310059  82.7099991  81.9980011 129.9089966  96.2210007
  81.0780029 129.6779938  95.6419983  82.0940018 128.9400024  97.2600021
  82.9769974 128.7980042  97.6100006  83.1699982 129.7810059  95.2220001
  84.1470032 129.9029999  95.7379990  83.0650024 130.6170044  94.4970016
  83.1579971 128.4739990  94.4100037  82.1279984 128.3200073  94.0220032
  83.4010010 127.6149979  95.0719986  84.1119995 128.4839935  93.2050018
  85.1630020 128.5780029  93.5530014  83.8809967 129.3730011  92.5790024
  83.9729996 127.2239990  92.3359985  82.9110031 127.1050034  92.0329971
  84.2470016 126.3399963  92.9509964  84.8420029 127.2229996  91.0690002
  85.9000015 127.4410019  91.3270035  84.8099976 126.2020035  90.6320038
  84.3870010 128.2140045  89.9950027  84.5810013 129.2519989  90.3410034
  83.2910004 128.1040039  89.8489990  85.0830002 127.9879990  88.6480026
  84.9029999 126.9390030  88.3280029  86.1790009 128.1260071  88.7659988
  84.5640030 128.9349976  87.5650024  83.4530029 128.8999939  87.5690002
  84.8710022 129.9720001  87.8160019  85.0400009 128.6080017  86.1470032
  86.1340027 128.7899933  86.0729980  84.8470001 127.5350037  85.9339981
  84.3130035 129.4609985  85.1039963  83.2200012 129.3419952  85.2679977
  84.5490036 130.5269928  85.3089981  84.6429977 129.1479950  83.6539993
  84.0049973 129.7469940  82.9690018  85.7050018 129.3979950  83.4469986
  84.4850006 128.0700073  83.4349976  83.9850006 135.7610016  98.0540009
  85.2139969 135.7460022  98.1569977  83.2710037 136.6860046  97.0729980
  83.0479965 137.6569977  97.5640030  82.3109970 136.2059937  96.7850037
  84.1240005 136.8849945  95.8069992  84.6129990 135.9239960  95.5410004
  85.1119995 137.8899994  96.0270004  85.7259979 138.0209961  95.3000031
  83.2600021 137.3020020  94.6039963  82.9789963 138.3739929  94.6800003
  82.3190002 136.7120056  94.6330032  83.9280014 137.0079956  93.2529984
  84.1269989 135.9160004  93.2070007  84.9039993 137.5310059  93.1610031
  83.0250015 137.3840027  92.0770035  83.1399994 138.4620056  91.8310013
  81.9700012 137.2359924  92.3919983  83.2490005 136.5260010  90.8249969
  82.4240036 136.7660065  90.1200027  83.1620026 135.4479980  91.0800018
  84.5800018 136.7689972  90.1080017  84.7829971 137.8609924  90.1320038
  85.4130020 136.2539978  90.6320038  84.5110016 136.3430023  88.6370010
  83.5339966 136.6959991  88.2440033  84.5220032 135.2350006  88.5550003
  85.6050034 136.9550018  87.7549973  85.6979980 138.0260010  88.0329971
  86.5830002 136.4649963  87.9459991  85.2470016 136.8820038  86.2639999
  85.4660034 135.8639984  85.8779984  84.1539993 137.0529938  86.1630020
  85.9560013 137.9360046  85.4039993  85.7799988 138.9409943  85.8440018
  87.0500031 137.7429962  85.4229965  85.4649963 137.9320068  83.9520035
  85.5790024 136.9010010  83.5530014  84.3799973 138.1710052  83.9369965
  86.2180023 138.8880005  83.0289993  85.8270035 138.8130035  81.9919968
  86.1200027 139.9389954  83.3779984  87.2969971 138.6219940  83.0130005
  90.5839996 133.3190002 107.3980026  91.2399979 134.2169952 107.9980011
  90.9990005 132.1589966 107.1179962  89.0189972 133.5359955 107.2799988
  87.2600021 135.1679993 107.4800034  86.8109970 134.7539978 106.5520020
  88.6880035 134.9450073 107.4290009  88.3219986 132.6999969 108.3690033
  88.7939987 132.9409943 109.3450012  88.5159988 131.6250000 108.1709976
  86.8479996 132.9470062 108.4729996  86.3889999 132.6450043 107.5070038
  86.3059998 132.1549988 109.5449982  86.5979996 134.4309998 108.6490021
  85.5039978 134.6069946 108.5749969  87.0339966 134.9149933 109.9260025
  86.4919968 134.5160065 110.6119995  86.9810028 136.6679993 107.4769974
  87.4240036 137.1119995 108.3939972  85.5640030 136.9230042 107.4759979
  85.4729996 137.8229980 107.1529999  87.6070023 137.3350067 106.2559967
  88.6869965 137.0829926 106.1969986  87.1299973 136.9499969 105.3300018
  87.4670029 138.7700043 106.3130035  88.3489990 139.1490021 106.3389969
  83.9929962 132.4479980 108.8000031  83.6279984 132.4730072 107.5920029
  83.5530014 133.1790009 109.7340012  85.1250000 131.4279938 109.2089996
  86.3600006 129.4810028 108.5230026  87.2740021 130.0260010 108.8430023
  85.3649979 130.4609985 108.1470032  84.7460022 130.6900024 110.5100021
  83.7419968 130.2380066 110.3610001  84.6520004 131.4270020 111.3369980
  85.7109985 129.6159973 110.8919983  86.6969986 130.0829926 111.1050034
  85.2639999 128.9730072 112.0849991  85.6760025 129.3750000 112.8529968
  85.9140015 128.6490021 109.7320023  86.7399979 127.9609985 110.0100021
  84.7570038 127.8499985 109.4430008  84.5319977 127.3369980 110.2229996
  86.7779999 128.6459961 107.3170013  85.9089966 128.0410004 106.9820023
  87.8570023 127.7649994 107.6819992  88.2040024 127.4449997 106.8460007
  87.2379990 129.5399933 106.1679993  86.4459991 130.2729950 105.9049988
  88.1289978 130.1230011 106.4879990  87.5759964 128.7729950 104.9960022
  86.7949982 128.7299957 104.4380035 128.5610046  70.0640030 104.4710007
 128.6640015  68.4169998 105.7580032 129.1380005  69.1230011 104.5960007
 130.2019958  69.4120026 104.7300034 129.0160065  68.2829971 103.3219986
 127.6340027  67.9950027 103.0650024 129.5449982  67.3239975 103.5090027
 127.5110016  67.0550003 101.9889984 128.2259979  66.2229996 102.1630020
 126.2330017  66.4520035 101.8349991 125.1559982  66.9950027 102.6149979
 125.4970016  67.3450012 103.6129990 124.4520035  66.1620026 102.8239975
 129.6360016  68.9649963 102.0889969 129.1820068  69.9779968 102.0350037
 131.0480042  69.0139999 102.3290024 131.9900055  70.3880005 102.1979980
 133.1540070  70.1780014 103.1760025 131.1490021  71.6129990 102.5849991
 132.4949951  70.4479980 100.7539978 129.3220062  68.2369995 100.7730026
 129.6260071  69.1299973  99.6859970 129.9669952  67.3320007 100.7760010
 130.2319946  68.6129990  98.6190033 130.5850067  67.4449997  98.5039978
 130.0619965  69.5299988  97.4240036 129.0249939  69.9270020  97.4049988
 130.2380066  68.9290009  96.5070038 127.8840027  67.7149963 100.6790009
 127.2080002  68.5869980 100.5569992 127.6679993  66.7949982  99.5599976
 127.7539978  65.8229980  99.7649994 123.8550034  67.6900024 100.5169983
 124.7470016  67.5540009  99.8679962 123.1370010  66.4499969 100.5350037
 122.3020020  66.5329971 101.0019989 124.3590012  68.0920029 101.9059982
 123.4649963  68.2740021 102.5400009 125.1060028  69.3290024 101.8769989
 124.4189987  70.4329987 101.2409973 125.2139969  71.1790009 101.0289993
 123.4240036  70.9609985 102.1169968 124.9700012  72.6350021 103.3539963
 123.3919983  73.4779968 101.5500031 122.4690018  72.6510010 103.7679977
 123.5800018  72.5070038 102.7220001 123.0100021  68.8280029  99.9769974
 122.2570038  69.0599976 100.7610016 122.2289963  68.5449982  98.8109970
 122.8539963  68.1549988  97.7060013 124.0609970  68.1449966  97.5400009
 121.8229980  68.0950012  96.5839996 122.0189972  68.9359970  95.8860016
 120.8040009  68.2180023  97.0080032 123.8980026  70.0469971  99.8560028
 124.7939987  69.7129974  99.2900009 123.2799988  71.1480026  99.1279984
 122.3030014  71.2829971  99.2699966 131.1000061  70.6490021  97.5159988
 131.0350037  71.1090012  98.5250015 130.8359985  71.6299973  96.5029984
 129.8059998  72.4300003  96.7289963 129.1690063  72.5009995  97.7710037
 129.6219940  73.3850021  95.5429993 130.6210022  73.7900009  95.2750015
 128.9770050  74.2279968  95.8710022 129.0119934  72.6910019  94.3069992
 127.9550018  72.4160004  94.5100021 129.5769958  71.7570038  94.1019974
 129.0850067  73.5859985  93.0599976 130.1459961  73.8759995  92.9020004
 128.5079956  74.5169983  93.2460022 128.5740051  72.9319992  91.7630005
 128.7209930  73.6600037  90.9359970 127.4830017  72.7350006  91.8420029
 129.2920074  71.6220016  91.4000015 128.8930054  70.8150024  92.0520020
 130.3769989  71.7160034  91.6159973 129.1239929  71.2020035  89.9309998
 128.0709991  71.3470001  89.6090012 129.3500061  70.1169968  89.8590012
 130.0829926  71.9270020  88.9710007 131.1210022  71.7770004  89.3379974
 129.8659973  73.0169983  88.9850006 130.0110016  71.4120026  87.5250015
 128.9839935  71.5729980  87.1340027 130.2089996  70.3190002  87.5250015
 131.0209961  72.0889969  86.5859985 132.0489960  71.8690033  86.9449997
 130.8670044  73.1890030  86.6340027 130.8990021  71.6419983  85.1190033
 129.8560028  71.8199997  84.7809982 131.0959930  70.5510025  85.0530014
 131.8580017  72.3929977  84.1800003 132.8979950  72.0759964  84.4079971
 131.7810059  73.4800034  84.4000015 131.5839996  72.1959991  82.6790009
 130.5469971  72.5360031  82.4700012 132.2680054  72.8629990  82.1110001
 131.7539978  70.7639999  82.1709976 131.5420074  70.7040024  81.0830002
 131.0570068  70.0800018  82.7020035 132.7929993  70.4100037  82.3470001
 132.5540009  70.1190033  97.3529968 132.6280060  69.0790024  97.7369995
 133.1860046  70.7539978  98.0090027 133.1849976  70.1989975  95.9469986
 134.2440033  69.8710022  96.0189972 133.1999969  71.2659988  95.6399994
 132.5039978  69.3939972  94.8270035 131.4309998  69.6750031  94.7639999
 132.5670013  68.3050003  95.0400009 133.1670074  69.7210007  93.4830017
 134.2409973  69.4410019  93.5319977 133.1159973  70.8239975  93.3550034
 132.5420074  69.0849991  92.2330017 132.6130066  67.9779968  92.2959976
 131.4680023  69.3610001  92.1689987 133.2700043  69.5879974  90.9769974
 134.3560028  69.3870010  91.0960007 133.1419983  70.6900024  90.9169998
 132.8059998  68.9919968  89.6439972 132.8860016  67.8840027  89.6800003
 131.7409973  69.2580032  89.4739990 133.6470032  69.5360031  88.4800034
 133.5149994  70.6380005  88.4359970 134.7200012  69.3369980  88.6839981
 133.2870026  68.9489975  87.1100006 132.2200012  69.1709976  86.8949966
 133.4109955  67.8450012  87.1350021 134.1490021  69.5390015  85.9860001
 133.9519958  70.6309967  85.9440002 135.2220001  69.4029999  86.2409973
 133.8800049  68.9369965  84.6110001 134.5059967  69.4369965  83.8399963
 134.1139984  67.8509979  84.6019974 132.8130035  69.0739975  84.3339996
 127.3109970  67.1740036  98.3209991 127.1610031  68.3560028  98.0210037
 127.1090012  66.0459976  97.3140030 127.5230026  65.1070023  97.7379990
 126.0220032  65.9069977  97.1340027 127.8389969  66.3649979  95.9919968
 128.8639984  66.7149963  96.2399979 127.0719986  67.3580017  95.2929993
 127.7659988  68.2539978  94.5889969 128.9839935  68.2809982  94.4810028
 126.9000015  69.5039978  94.3860016 127.5419998  70.2939987  93.9420013
 126.5670013  69.8430023  95.3909988 125.6809998  69.2500000  93.4840012
 124.9530029  70.0690002  93.6660004 125.1829987  68.2969971  93.7620010
 126.0059967  69.2490005  91.9840012 126.6689987  68.3919983  91.7369995
 126.5490036  70.1849976  91.7320023 124.7249985  69.1819992  91.1399994
 124.0390015  69.9810028  91.4940033 124.2229996  68.2060013  91.3150024
 124.9290009  69.3769989  89.6309967 125.5339966  68.5419998  89.2180023
 125.4869995  70.3219986  89.4589996 123.5810013  69.4560013  88.8949966
 122.9700012  70.2519989  89.3700027 123.0449982  68.4909973  89.0279999
 123.6859970  69.7679977  87.3960037 124.2639999  68.9599991  86.9000015
 124.2399979  70.7210007  87.2570038 122.3059998  69.8769989  86.7269974
 121.7119980  70.6750031  87.2210007 121.7809982  68.9120026  86.8929977
 122.3590012  70.1370010  85.2129974 121.3679962  69.8850021  84.7779999
 123.1090012  69.4589996  84.7529984 122.6949997  71.5849991  84.8330002
 121.9629974  72.2649994  85.3199997 123.7009964  71.8359985  85.2330017
 122.6800003  71.8229980  83.3229980 121.6930008  71.5550003  82.8909988
 122.8889999  72.8889999  83.0879974 123.4589996  71.1989975  82.8349991
 127.9680023  65.0770035  95.1309967 126.9520035  64.7360001  94.8410034
 128.4329987  64.2809982  95.7519989 128.8209991  65.2689972  93.8710022
 129.8350067  65.6200027  94.1600037 128.3329926  66.0780029  93.2870026
 128.9490051  64.0439987  92.9530029 127.9280014  63.7519989  92.6269989
 129.3880005  63.1870003  93.5080032 129.7940063  64.3349991  91.6940002
 129.6479950  63.5070000  90.9660034 130.8710022  64.3690033  91.9639969
 129.4069977  65.6679993  91.0390015 128.2980042  65.6930008  90.9700012
 129.7200012  66.5080032  91.6940002 129.9649963  65.9400024  89.6399994
 129.6569977  65.1119995  88.9660034 131.0749969  65.9879990  89.6539993
 129.3809967  67.2620010  89.1240005 129.8789978  68.1149979  89.6309967
 128.3130035  67.2770004  89.4290009 129.4089966  67.4550018  87.6060028
 130.3190002  68.0179977  87.3050003 129.4479980  66.4540024  87.1250000
 128.1410065  68.1689987  87.1149979 127.2639999  67.6279984  87.5289993
 128.1190033  69.2050018  87.5149994 127.9810028  68.1949997  85.5930023
 128.1239929  67.1610031  85.2129974 128.7700043  68.8349991  85.1439972
 126.6039963  68.6760025  85.1449966 125.8069992  68.0780029  85.6360016
 126.4530029  69.7470016  85.4000015 126.4970016  68.5510025  84.0459976
 121.8960037  66.7590027  95.8219986 121.0179977  66.7220001  95.1429977
 121.7760010  65.6650009  96.7249985 122.5910034  65.3750000  97.1419983
 123.1510010  66.6159973  94.9339981 124.0780029  66.6790009  95.5429993
 123.1529999  67.4810028  94.2369995 123.2170029  65.3310013  94.0930023
 122.2269974  65.1439972  93.6259995 123.4479980  64.4680023  94.7539978
 124.2710037  65.4229965  92.9789963 125.2470016  65.7450027  93.4010010
 123.9410019  66.2109985  92.2689972 124.4639969  64.0950012  92.2330017
 123.4850006  63.5769997  92.1460037 125.1340027  63.4560013  92.8470001
 125.0520020  64.2289963  90.8180008 126.0029984  64.8020020  90.8550034
 125.2860031  63.2099991  90.4420013 124.0790024  64.8919983  89.8300018
 123.9100037  65.9469986  90.1340027 123.1039963  64.3610001  89.8840027
 124.5550003  64.8820038  88.3730011 124.7050018  63.8330002  88.0390015
 125.5350037  65.4010010  88.3040009 123.5599976  65.5719986  87.4300003
 122.5889969  65.0319977  87.4660034 123.3919983  66.6090012  87.7900009
 124.0449982  65.6350021  85.9800034 125.0380020  66.1340027  85.9589996
 124.1900024  64.6019974  85.5979996 123.0940018  66.3990021  85.0550003
 122.1240005  65.8610001  85.0110016 122.9100037  67.3960037  85.5100021
 123.6330032  66.6009979  83.6409988 122.9079971  67.1699982  83.0210037
 124.5889969  67.1660004  83.6709976 123.8300018  65.6220016  83.1529999
 123.9499969  71.8960037  98.2330017 125.1760025  71.8339996  98.1259995
 123.1019974  72.7939987  97.3349991 123.0080032  73.8000031  97.7949982
 122.0889969  72.3440018  97.2570038 123.7200012  72.8809967  95.9229965
 124.1500015  71.8949966  95.6439972 124.7399979  73.8759995  95.9100037
 125.2829971  73.8949966  95.1190033 122.6640015  73.2409973  94.8550034
 122.3249969  74.2890015  95.0029984 121.7829971  72.5800018  94.9990005
 123.1610031  73.0510025  93.4100037 123.4960022  71.9990005  93.2819977
 124.0400009  73.7070007  93.2310028 122.0849991  73.3580017  92.3590012
 121.8359985  74.4410019  92.3939972 121.1640015  72.7929993  92.6179962
 122.4980011  72.9729996  90.9290009 121.6419983  73.1589966  90.2470016
 122.7180023  71.8840027  90.9020004 123.7220001  73.7350006  90.3949966
 123.5059967  74.8249969  90.4029999 124.5930023  73.5530014  91.0599976
 124.1009979  73.2969971  88.9729996 123.2350006  73.4550018  88.2949982
 124.3199997  72.2080002  88.9909973 125.3280029  74.0220032  88.4020004
 125.1039963  75.1070023  88.3119965 126.1780014  73.9039993  89.1080017
 125.7490005  73.4720001  87.0309982 126.0019989  72.3960037  87.1439972
 124.8919983  73.5429993  86.3280029 126.9530029  74.2080002  86.4250031
 126.6699982  75.2679977  86.2490005 127.7919998  74.1900024  87.1520004
 127.4359970  73.5960007  85.1029968 127.7720032  72.5540009  85.2959976
 126.5790024  73.5429993  84.3990021 128.5760040  74.3690033  84.4380035
 128.8739929  73.8679962  83.4919968 128.2599945  75.4079971  84.1999969
 129.4640045  74.4069977  85.1039963 130.8009949  68.4479980 107.0049973
 131.5879974  69.2149963 107.6279984 131.0520020  67.2610016 106.6500015
 129.2729950  68.8720016 106.9729996 127.7649994  70.7229996 107.3109970
 127.2089996  70.4079971 106.4020004 129.1430054  70.3099976 107.1620026
 128.5359955  68.1110001 108.0899963 129.0950012  68.2679977 109.0370026
 128.5780029  67.0230026 107.8659973 127.1169968  68.5439987 108.3020020
 126.5439987  68.3089981 107.3799973 126.5680008  67.8270035 109.4219971
 127.0780029  70.0459976 108.5029984 126.0110016  70.3590012 108.4950027
 127.6399994  70.4499969 109.7580032 127.0930023  70.1050034 110.4670029
 127.7020035  72.2500000 107.3710022 128.3079987  72.5839996 108.2399979
 126.3430023  72.7040024 107.5469971 126.3199997  73.2119980 108.3619995
 128.2859955  72.8730011 106.1070023 129.3070068  72.4690018 105.9410019
 127.6729965  72.5930023 105.2239990 128.3899994  74.3069992 106.2089996
 127.4970016  74.6539993 106.1569977 124.2239990  68.3180008 108.8629990
 123.5130005  68.1470032 107.8349991 124.0510025  69.1989975 109.7519989
 125.3020020  67.2129974 109.1979980 126.2829971  65.1340027 108.4749985
 127.2750015  65.5869980 108.6880035 125.3649979  66.2050018 108.1510010
 124.9759979  66.5510025 110.5510025 123.9280014  66.1849976 110.5070038
 125.0199966  67.3160019 111.3560028 125.8779984  65.4069977 110.8850021
 126.9179993  65.7880020 110.9820023 125.4960022  64.8479996 112.1399994
 126.0059967  65.2490005 112.8479996 125.8769989  64.3880005 109.7519989
 126.6600037  63.6329994 109.9779968 124.6269989  63.6980019 109.6080017
 124.4469986  63.2150002 110.4189987 126.4929962  64.2170029 107.2740021
 125.5479965  63.6679993 107.0739975 127.5429993  63.2700005 107.5520020
 127.7789993  62.9119987 106.6930008 126.8690033  65.0189972 106.0309982
 126.0910034  65.7890015 105.8389969 127.8320007  65.5500031 106.1940002
 126.9680023  64.1719971 104.8700027 126.8280029  64.7239990 104.0970001
  46.7449989  87.7799988 104.1869965  48.3680000  87.2949982 105.4130020
  47.8320007  87.9909973 104.2730026  47.9430008  89.0879974 104.4049988
  48.5309982  87.5899963 102.9700012  48.3409996  86.1890030 102.7409973
  49.6170006  87.7809982 103.1050034  49.1320000  85.7470016 101.6309967
  50.1469994  86.1880035 101.7229996  49.3300018  84.3410034 101.5589981
  48.4850006  83.5189972 102.3889999  48.2420006  84.0029984 103.3590012
  49.0719986  82.6149979 102.6579971  48.0209999  88.3740005 101.7490005
  46.9140015  88.2910004 101.7809982  48.4720001  89.7239990 101.9169998
  47.4739990  91.0670013 101.9150009  48.1259995  92.0579987 102.8889999
  46.0709991  90.6589966 102.3860016  47.4780006  91.6240005 100.4879990
  48.4889984  87.8040009 100.3980026  47.6389999  88.3720016  99.3840027
  49.5470009  88.1279984 100.2910004  48.2089996  88.7910004  98.2549973
  49.4099998  88.7529984  98.0110016  47.1559982  88.9779968  97.1790009
  46.4210014  88.1470032  97.2429962  47.6599998  88.9250031  96.1900024
  48.5340004  86.2659988 100.3339996  47.4889984  85.8939972 100.2870026
  49.2560005  85.7529984  99.1640015  50.2089996  85.4950027  99.3069992
  47.5159988  82.3570023 100.3570023  48.0149994  83.1179962  99.7210007
  48.4179993  81.2529984 100.5159988  48.0130005  80.5309982 101.0009995
  47.2109985  83.0410004 101.6880035  46.7470016  82.2799988 102.3509979
  46.2550011  84.1250000 101.5960007  45.0909996  83.8730011 100.7710037
  44.7610016  84.8860016 100.4540024  44.0750008  83.2139969 101.5270004
  43.0660019  85.1250000 102.9570007  42.0620003  84.6210022 100.6750031
  41.7579994  82.9879990 102.5820007  42.6809998  84.0360031 101.9499969
  46.2179985  81.9339981  99.7060013  45.6590004  81.3440018 100.4629974
  46.3269997  81.0680008  98.5690002  47.1310005  81.4329987  97.5690002
  47.6380005  82.5319977  97.4319992  47.0019989  80.3720016  96.4789963
  46.1409988  80.6360016  95.8280029  46.7949982  79.3919983  96.9609985
  45.4080009  83.1800003  99.4440002  46.0849991  83.8690033  98.8960037
  44.2280006  82.9400024  98.6250000  43.7470016  82.0800018  98.7779999
  46.5060005  90.3489990  97.3799973  46.2109985  90.4430008  98.4469986
  45.3470001  90.4680023  96.5429993  44.3300018  89.6839981  96.8769989
  44.1739998  89.1370010  97.9599991  43.3499985  89.5800018  95.7070007
  43.0340004  90.6060028  95.4229965  42.4589996  89.0110016  96.0469971
  44.0050011  88.8759995  94.5009995  44.2789993  87.8300018  94.7570038
  44.9440002  89.4160004  94.2559967  43.1069984  88.8799973  93.2580032
  42.7610016  89.9199982  93.0830002  42.2070007  88.2559967  93.4430008
  43.8040009  88.4000015  91.9739990  43.1049995  88.5530014  91.1240005
  44.0180016  87.3119965  92.0490036  45.1180000  89.1389999  91.6790009
  45.8969994  88.7460022  92.3669968  45.0029984  90.2229996  91.8949966
  45.6170006  88.9749985  90.2399979  45.3170013  87.9789963  89.8489990
  46.7270012  89.0120010  90.2490005  45.1339989  90.0849991  89.2929993
  45.5390015  91.0550003  89.6549988  44.0250015  90.1490021  89.3229980
  45.5989990  89.8489990  87.8550034  45.0610008  88.9570007  87.4670029
  46.6829987  89.6060028  87.8700027  45.3839989  91.0179977  86.8850021
  45.9690018  91.8929977  87.2389984  44.3089981  91.2979965  86.8740005
  45.8300018  90.6350021  85.4670029  45.1899986  89.7959976  85.1200027
  46.8740005  90.2580032  85.5189972  45.7519989  91.7570038  84.4229965
  46.4900017  92.5469971  84.6800003  44.7379990  92.2089996  84.4530029
  46.0190010  91.2539978  82.9929962  45.2340012  90.5120010  82.7360001
  45.9059982  92.1090012  82.2919998  47.3880005  90.6060028  82.7730026
  47.4990005  90.2689972  81.7200012  47.5110016  89.7229996  83.4369965
  48.2000008  91.3290024  83.0019989  47.4780006  91.5230026  97.0739975
  48.5060005  91.2480011  97.3929977  47.1539993  92.3679962  97.7180023
  47.5070000  92.0719986  95.6299973  48.1510010  92.9769974  95.6240005
  46.4840012  92.4010010  95.3489990  48.0239983  91.1179962  94.5419998
  47.3699989  90.2220001  94.4850006  49.0509987  90.7809982  94.7990036
  48.0309982  91.7949982  93.1630020  48.6049995  92.7429962  93.2279968
  46.9840012  92.0510025  92.8919983  48.6320000  90.9319992  92.0449982
  49.6829987  90.6809998  92.3030014  48.0639992  89.9800034  91.9710007
  48.5989990  91.6380005  90.6800003  49.1080017  92.6220016  90.7669983
  47.5390015  91.8259964  90.4039993  49.2639999  90.8320007  89.5569992
  50.3240013  90.6360016  89.8249969  48.7519989  89.8499985  89.4670029
  49.2130013  91.5380020  88.1940002  48.1489983  91.6780014  87.9079971
  49.6809998  92.5419998  88.2829971  49.9199982  90.7480011  87.0839996
  49.4370003  89.7509995  86.9980011  50.9809990  90.5849991  87.3720016
  49.8689995  91.4369965  85.7160034  48.8030014  91.5520020  85.4229965
  50.3059998  92.4540024  85.8069992  50.6080017  90.6650009  84.6210022
  50.5330009  91.1959991  83.6480026  51.6809998  90.5520020  84.8830032
  50.1660004  89.6520004  84.5029984  48.7239990  85.6600037  97.9270020
  47.5289993  85.8590012  97.7160034  49.7010002  85.3450012  96.7969971
  50.7029991  85.7300034  97.0820007  49.7669983  84.2450027  96.6529999
  49.2550011  86.0449982  95.4909973  48.9539986  87.0830002  95.7509995
  48.1870003  85.2850037  94.9000015  47.2639999  86.0080032  94.2539978
  47.2220001  87.2300034  94.2200012  46.0320015  85.1269989  93.9889984
  45.2039986  85.7809982  93.6419983  45.7340012  84.6750031  94.9589996
  46.2980003  84.0159988  92.9599991  45.4879990  83.2630005  93.0640030
  47.2589989  83.5039978  93.1819992  46.2949982  84.4860001  91.4980011
  47.1730003  85.1389999  91.3030014  45.3750000  85.0810013  91.3170013
  46.2960014  83.2929993  90.5279999  45.4560013  82.6289978  90.8239975
  47.2389984  82.7170029  90.6389999  46.0919991  83.6579971  89.0500031
  46.9809990  84.2089996  88.6750031  45.2130013  84.3320007  88.9700012
  45.8390007  82.4240036  88.1669998  44.9770012  81.8580017  88.5810013
  46.7319984  81.7649994  88.2210007  45.5559998  82.7419968  86.6900024
  46.4140015  83.3229980  86.2900009  44.6489983  83.3789978  86.6129990
  45.3699989  81.4840012  85.8259964  44.4589996  80.9369965  86.1490021
  46.2420006  80.8209991  86.0130005  45.3040009  81.7450027  84.3109970
  45.4199982  80.7720032  83.7890015  46.1570015  82.3939972  84.0189972
  44.0000000  82.3889999  83.8270035  43.1599998  81.7170029  84.1050034
  43.8510017  83.3539963  84.3580017  43.9539986  82.6340027  82.3180008
  44.0999985  81.6809998  81.7659988  42.9700012  83.0609970  82.0279999
  44.7519989  83.3470001  82.0169983  50.4490013  86.1429977  94.5019989
  50.7890015  85.1169968  94.2450027  51.2820015  86.6520004  95.0329971
  50.1669998  86.9189987  93.2040024  49.7420006  87.9130020  93.4589996
  49.4029999  86.3669968  92.6159973  51.4160004  87.1230011  92.3349991
  51.8460007  86.1309967  92.0790024  52.1769981  87.6760025  92.9250031
  51.1430016  87.8990021  91.0339966  52.1129990  88.0709991  90.5210037
  50.7239990  88.8980026  91.2779999  50.1940002  87.1900024  90.0520020
  50.1669998  86.1019974  90.2760010  49.1660004  87.5859985  90.1969986
  50.6199989  87.3619995  88.5859985  51.5800018  86.8249969  88.4329987
  50.7999992  88.4400024  88.3860016  49.5859985  86.8420029  87.5759964
  48.6860008  87.4940033  87.6110001  49.2709999  85.8180008  87.8690033
  50.1250000  86.7969971  86.1380005  50.4799995  87.8119965  85.8570023
  50.9959984  86.1090012  86.1080017  49.0880013  86.3300018  85.1050034
  48.6969986  85.3369980  85.4140015  48.2369995  87.0439987  85.1119995
  49.6329994  86.2330017  83.6740036  50.5070000  85.5469971  83.6780014
  49.9869995  87.2409973  83.3690033  48.6240005  85.7440033  82.6370010
  48.2239990  84.7480011  82.9240036  47.7709999  86.4530029  82.5670013
  49.0960007  85.6640015  81.6350021  48.2820015  80.2320023  95.6330032
  48.1710014  79.3079987  95.0270004  49.4129982  80.0500031  96.4769974
  49.8190002  80.8629990  96.7870026  48.5070000  81.3889999  94.6330032
  48.5849991  82.3570023  95.1719971  47.6080017  81.4430008  93.9820023
  49.7439995  81.2490005  93.7310028  49.7309990  80.2570038  93.2300034
  50.6590004  81.2969971  94.3590012  49.8199997  82.3489990  92.6610031
  49.6850014  83.3430023  93.1380005  48.9799995  82.2020035  91.9489975
  51.1580009  82.3420029  91.9110031  51.3769989  81.3030014  91.5849991
  51.9490013  82.6549988  92.6250000  51.2340012  83.2590027  90.6809998
  51.1819992  84.3219986  90.9990005  52.2229996  83.0999985  90.2020035
  50.1329994  82.9899979  89.6490021  49.2509995  83.6259995  89.8750000
  49.8129997  81.9290009  89.7399979  50.5810013  83.2109985  88.2009964
  51.4379997  82.5329971  88.0000000  50.9300003  84.2559967  88.0589981
  49.4640007  82.8960037  87.2030029  48.9570007  81.9599991  87.5210037
  48.7060013  83.7070007  87.2310028  49.9490013  82.7020035  85.7630005
  50.4469986  83.6299973  85.4089966  50.6930008  81.8769989  85.7360001
  48.7789993  82.3669968  84.8339996  48.2169991  81.5169983  85.2779999
  48.0909996  83.2389984  84.8150024  49.1669998  82.0009995  83.4059982
  48.2570000  81.7819977  82.8069992  49.7200012  82.8349991  82.9240036
  49.8129997  81.0970001  83.4120026  43.8059998  83.7949982  97.6770020
  44.3320007  84.8960037  97.5029984  42.6609993  83.2979965  96.8020020
  41.7169991  83.2829971  97.3880005  42.9029999  82.2590027  96.4929962
  42.5159988  84.1740036  95.5419998  43.5190010  84.5019989  95.1959991
  41.7050018  85.3109970  95.8310013  41.6539993  85.9639969  95.1299973
  41.8839989  83.3809967  94.3820038  40.7970009  83.2320023  94.5559998
  42.3600006  82.3769989  94.3679962  42.1370010  84.0110016  93.0039978
  43.2229996  84.2249985  92.9169998  41.5940018  84.9749985  92.9049988
  41.7490005  83.0660019  91.8610001  40.6430016  82.9830017  91.7919998
  42.1450005  82.0559998  92.1019974  42.3370018  83.4720001  90.5049973
  42.1699982  82.6360016  89.7929993  43.4350014  83.6019974  90.6110001
  41.7400017  84.7500000  89.8960037  40.6339989  84.6419983  89.8659973
  41.9840012  85.6279984  90.5329971  42.2560005  84.9810028  88.4710007
  42.1440010  84.0270004  87.9130020  43.3409996  85.2190018  88.4970016
  41.5250015  86.0719986  87.6770020  40.4290009  85.9390030  87.7969971
  41.7999992  87.0759964  88.0670013  41.8730011  85.9660034  86.1880035
  42.9669991  86.1090012  86.0569992  41.6430016  84.9309998  85.8570023
  41.1360016  86.9329987  85.2570038  40.0499992  86.9319992  85.4909973
  41.5239983  87.9599991  85.4219971  41.3300018  86.5339966  83.7880020
  42.4179993  86.4010010  83.6090012  40.8489990  85.5449982  83.6250000
  40.7820015  87.5299988  82.7710037  41.0110016  87.1859970  81.7389984
  39.6800003  87.6179962  82.8730011  41.2389984  88.5319977  82.9199982
  48.9059982  89.3170013 106.7350006  48.3810005  90.2509995 107.4049988
  50.1139984  89.2600021 106.3649979  48.0929985  87.9580002 106.6520004
  45.9080009  86.9869995 106.9869995  46.0550003  86.3880005 106.0630035
  46.6710014  88.2099991 106.8509979  48.6450005  87.0019989 107.7279968
  48.6679993  87.5559998 108.6910019  49.6959991  86.7450027 107.4759979
  47.8429985  85.7529984 107.9250031  47.8969994  85.1559982 106.9899979
  48.4119987  85.0120010 109.0179977  46.3919983  86.1250000 108.1589966
  45.7970009  85.1869965 108.1419983  46.1809998  86.7559967 109.4290009
  46.3730011  86.1220016 110.1250000  44.4169998  87.3130035 107.0780029
  44.2459984  87.9260025 107.9889984  43.6320000  86.1080017 107.1790009
  42.7659988  86.3489990 106.8440018  43.9500008  88.1039963 105.8629990
  44.5880013  89.0009995 105.7170029  44.0550003  87.4749985 104.9530029
  42.5779991  88.5230026 106.0000000  42.5789986  89.3939972 106.4029999
  47.1650009  82.9469986 108.5380020  47.0130005  82.3050003 107.4619980
  46.3349991  83.0230026 109.4889984  48.5709991  83.6119995 108.8069992
  50.8289986  83.8339996 107.9729996  50.7430000  84.9319992 108.1220016
  49.5000000  83.3180008 107.7249985  49.1479988  83.1169968 110.1460037
  49.1629982  82.0059967 110.1230011  48.4690018  83.4169998 110.9729996
  50.5289993  83.6190033 110.4150009  50.5029984  84.7269974 110.4860001
  50.9840012  83.1110001 111.6689987  50.7299995  83.7070007 112.3769989
  51.4480019  83.2600021 109.2549973  52.4210014  83.7669983 109.4300003
  51.7010002  81.8499985 109.1480026  52.0839996  81.5439987 109.9729996
  51.7099991  83.6320038 106.7409973  51.8680000  82.5419998 106.5950012
  52.9860001  84.2710037 106.9300003  53.3440018  84.3590012 106.0429993
  51.0559998  84.1959991 105.4850006  50.0480003  83.7470016 105.3560028
  50.9239998  85.2949982 105.5830002  51.8419991  83.8960037 104.3140030
  51.3089981  84.1220016 103.5479965  49.6090012 102.9820023 104.4000015
  47.9710007 103.4850006 105.5989990  48.5289993 102.7409973 104.4980011
  48.4539986 101.6490021 104.6890030  47.8209991 103.0579987 103.1790009
  47.9230003 104.4649963 102.9199982  46.7500000 102.7939987 103.3119965
  47.0699997 104.8339996 101.8320007  46.0680008 104.3889999 102.0120010
  46.8590012 106.2310028 101.6669998  47.6990013 107.1169968 102.4280014
  47.8689995 106.7369995 103.4580002  47.1389999 108.0680008 102.5520020
  48.3769989 102.2890015 101.9660034  49.4620018 102.5220032 101.9209976
  48.1320000 100.8949966 102.2030029  49.2980003  99.6959991 102.1080017
  48.8610001  98.6169968 103.1080017  50.6619987 100.2870026 102.4909973
  49.2779999  99.1490021 100.6750031  47.7410011 102.7509995 100.6419983
  48.5320015 102.2149963  99.5650024  46.7050018 102.3470001 100.6559982
  47.8790016 101.7310028  98.5059967  46.6599998 101.6869965  98.3899994
  48.8289986 101.6169968  97.3219986  49.6329994 102.3769989  97.4240036
  48.2529984 101.8359985  96.3970032  47.5880013 104.2750015 100.5220032
  48.5979996 104.7109985 100.3619995  46.7190018 104.7099991  99.4270020
  45.7910004 104.9690018  99.6859970  48.8520012 107.9769974 100.3219986
  48.4269981 107.1419983  99.7249985  47.9389992 109.0810013 100.2419968
  48.2929993 109.8629990 100.6709976  49.0279999 107.4660034 101.7559967
  49.4650002 108.2969971 102.3489990  49.9580002 106.3580017 101.8570023
  51.2229996 106.5579987 101.1839981  51.6419983 105.5360031 101.0719986
  52.0730019 107.3880005 101.9729996  53.3100014 105.5660019 103.3320007
  54.4350014 106.5960007 101.2969971  54.0900002 107.9759979 103.3789978
  53.5419998 106.8369980 102.5130005  50.2220001 108.3300018  99.7839966
  50.6980019 108.9940033 100.5380020  50.2719994 109.0920029  98.5739975
  49.6170006 108.6439972  97.5110016  49.1469994 107.5279999  97.3830032
  49.8750000 109.6119995  96.3649979  50.3089981 109.0419998  95.5159988
  50.6059990 110.3860016  96.6819992  51.0260010 107.0500031  99.7509995
  50.3849983 106.2910004  99.2539978  52.2700005 107.1699982  99.0080032
  52.8180008 107.9820023  99.1900024  49.3919983 100.1920013  97.2929993
  49.8180008  99.9729996  98.2949982  50.4129982 100.0820007  96.2929993
  51.5460014 100.7200012  96.5360031  51.8870010 101.1910019  97.6110001
  52.4669991 100.5739975  95.3199997  52.4830017  99.5009995  95.0319977
  53.4930000 100.8720016  95.6210022  51.9889984 101.4309998  94.1269989
  52.1710014 102.5070038  94.3359985  50.8950005 101.2929993  93.9919968
  52.6819992 101.0299988  92.8160019  52.4290009  99.9700012  92.5999985
  53.7830009 101.0910034  92.9479980  52.2779999 101.8820038  91.5989990
  52.7459984 101.4359970  90.6949997  52.6839981 102.9100037  91.7129974
  50.7589989 101.9739990  91.3860016  50.3300018 102.6169968  92.1829987
  50.3059998 100.9660034  91.4970016  50.3470001 102.5500031  90.0230026
  50.9599991 103.4449997  89.7839966  49.2879982 102.8789978  90.0999985
  50.4300003 101.5220032  88.8820038  49.8740005 100.6119995  89.1930008
  51.4910011 101.2350006  88.7160034  49.8219986 102.0250015  87.5660019
  50.3889999 102.9150009  87.2170029  48.7739983 102.3430023  87.7519989
  49.8180008 100.9609985  86.4589996  49.2070007 100.0950012  86.7939987
  50.8590012 100.6100006  86.2959976  49.2589989 101.4850006  85.1299973
  49.8989983 102.3290024  84.7929993  48.2369995 101.8850021  85.3069992
  49.1959991 100.4339981  84.0110016  48.4799995  99.6360016  84.3020020
  50.2000008  99.9710007  83.9039993  48.7820015 101.0029984  82.6429977
  49.5149994 101.7870026  82.3539963  48.8549995 100.1880035  81.8909988
  47.3709984 101.5910034  82.5920029  47.1450005 101.9800034  81.5759964
  47.2690010 102.4229965  83.3229980  46.6220016 100.8119965  82.8470001
  48.3139992  99.1100006  97.0059967  47.3479996  99.4039993  97.4690018
  48.6500015  98.1849976  97.5220032  48.0789986  98.7289963  95.5250015
  47.2910004  97.9469986  95.4860001  49.0120010  98.2760010  95.1259995
  47.6710014  99.8789978  94.5920029  48.4729996 100.6480026  94.5910034
  46.7410011 100.3570023  94.9660034  47.4690018  99.4209976  93.1399994
  46.6080017  98.7200012  93.0999985  48.3750000  98.8710022  92.8079987
  47.2159996 100.5800018  92.1630020  46.3209991 101.1439972  92.5029984
  48.0789986 101.2789993  92.1869965  46.9910011 100.1060028  90.7220001
  46.2070007  99.3190002  90.7300034  47.9280014  99.6520004  90.3349991
  46.5340004 101.2160034  89.7630005  45.5919991 101.6549988  90.1539993
  47.2999992 102.0199966  89.7229996  46.2820015 100.6839981  88.3450012
  47.2400017 100.3130035  87.9219971  45.5859985  99.8219986  88.4209976
  45.6759987 101.7080002  87.3769989  46.3889999 102.5459976  87.2300034
  44.7470016 102.1240005  87.8219986  45.3370018 101.0970001  86.0110016
  46.2719994 100.6979980  85.5630035  44.6450005 100.2419968  86.1689987
  44.7010002 102.0820007  85.0350037  44.4599991 101.5790024  84.0739975
  43.7659988 102.5059967  85.4609985  45.4029999 102.9189987  84.8300018
  47.0989990 104.8779984  98.1490021  48.2309990 104.5979996  97.7600021
  46.0309982 105.4560013  97.2220001  45.0299988 105.2320023  97.6500015
  46.1559982 106.5579987  97.1719971  46.1020012 104.8460007  95.8050003
  46.1010017 103.7399979  95.9079971  47.2750015 105.3580017  95.1520004
  47.9510002 104.4700012  94.4189987  47.6320000 103.3030014  94.2500000
  49.3889999 104.9720001  94.2239990  49.9840012 104.1569977  93.7590027
  49.8069992 105.1780014  95.2330017  49.4510002 106.2460022  93.3649979
  50.4640007 106.6880035  93.4779968  48.7179985 106.9909973  93.7429962
  49.2029991 106.0149994  91.8690033  48.1790009 105.6179962  91.7060013
  49.9249992 105.2580032  91.4929962  49.3820000 107.3180008  91.0749969
  50.3370018 107.7890015  91.3919983  48.5600014 108.0179977  91.3369980
  49.4329987 107.1370010  89.5500031  48.4640007 106.7310028  89.1890030
  50.2249985 106.3980026  89.3040009  49.7389984 108.4550018  88.8190002
  50.6669998 108.8980026  89.2399979  48.9059982 109.1650009  89.0059967
  49.9169998 108.2919998  87.3020020  49.0149994 107.7770004  86.9069977
  50.7970009 107.6470032  87.0920029  50.0680008 109.6370010  86.5690002
  50.9249992 110.1999969  86.9960022  49.1489983 110.2269974  86.7760010
  50.2439995 109.5500031  85.0380020  51.3069992 109.3259964  84.8059998
  50.0050011 110.5429993  84.6009979  49.3870010 108.4729996  84.3570023
  49.7820015 107.4869995  84.6859970  48.3400002 108.5439987  84.7229996
  49.3769989 108.5039978  82.8310013  48.7879982 109.3700027  82.4609985
  50.4090004 108.5820007  82.4280014  48.9070015 107.5800018  82.4309998
  44.8380013 105.2580032  95.0049973  44.7760010 106.3679962  95.0029984
  43.9469986 104.8720016  95.5459976  44.7750015 104.7630005  93.5500031
  44.8149986 103.6529999  93.5319977  45.6699982 105.1429977  93.0139999
  43.5120010 105.2440033  92.8180008  43.4490013 106.3499985  92.9059982
  42.6189995 104.8119965  93.3180008  43.4700012 104.8789978  91.3229980
  42.5040016 105.2289963  90.9020004  43.5070000 103.7740021  91.2099991
  44.6150017 105.5029984  90.5100021  44.6710014 106.5910034  90.7300034
  45.5750008 105.0449982  90.8300018  44.4700012 105.3160019  88.9950027
  43.5499992 105.8270035  88.6399994  44.3629990 104.2310028  88.7789993
  45.6850014 105.8529968  88.2279968  46.5919991 105.3550034  88.6320038
  45.7919998 106.9440002  88.4100037  45.6199989 105.5879974  86.7190018
  45.4020004 104.5070038  86.5839996  44.7849998 106.1589966  86.2590027
  46.9350014 105.8949966  85.9889984  46.8580017 106.8669968  85.4580002
  47.7459984 105.9860001  86.7429962  47.3300018 104.7809982  85.0130005
  46.5530014 104.7060013  84.2229996  47.3209991 103.8219986  85.5719986
  48.6959991 104.9449997  84.3539963  48.7010002 105.8470001  83.7050018
  49.4920006 105.0510025  85.1210022  48.9259987 104.0589981  83.7239990
  48.5690002 110.2990036  95.9270020  48.8520012 111.0989990  95.2109985
  47.9360008 110.9300003  97.0350037  47.4389992 110.3570023  97.6240005
  47.5880013 109.3710022  95.1800003  47.2680016 108.5260010  95.8259964
  48.1510010 108.9479980  94.3209991  46.3499985 110.0859985  94.6110001
  46.6759987 111.0500031  94.1650009  45.6370010 110.3170013  95.4309998
  45.6500015 109.2679977  93.5159988  45.3079987 108.2900009  93.9179993
  46.4080009 109.0540009  92.7320023  44.4620018 110.0120010  92.8860016
  44.7340012 111.0830002  92.7779999  43.5919991 109.9580002  93.5739975
  44.0579987 109.4960022  91.4919968  43.7630005 108.4270020  91.5500031
  43.1699982 110.0749969  91.1579971  45.1739998 109.6719971  90.4499969
  45.9389992 108.8759995  90.5820007  45.6710014 110.6470032  90.6419983
  44.6959991 109.6760025  88.9919968  43.8849983 110.4280014  88.8860016
  44.2809982 108.6809998  88.7239990  45.8359985 110.0400009  88.0279999
  46.3409996 110.9489975  88.4199982  46.5870018 109.2210007  88.0179977
  45.3810005 110.3330002  86.5920029  45.0070000 109.3970032  86.1250000
  44.5439987 111.0630035  86.6159973  46.5130005 110.9130020  85.7340012
  46.9379997 111.7990036  86.2519989  47.3170013 110.1500015  85.6679993
  46.1040001 111.3180008  84.3229980  45.3030014 112.0869980  84.3479996
  46.9720001 111.7340012  83.7689972  45.7229996 110.4410019  83.7580032
  52.6619987 106.2929993  98.0709991  52.0970001 105.2119980  97.9010010
  53.8279991 106.7409973  97.2040024  54.7859993 106.4420013  97.6800003
  53.8019981 107.8499985  97.1419983  53.6949997 106.1600037  95.7839966
  52.6259995 106.0169983  95.5169983  54.3790016 104.9110031  95.7249985
  54.2459984 104.4079971  94.9179993  54.2999992 107.1279984  94.7470016
  55.3849983 107.2529984  94.9509964  53.8160019 108.1179962  94.8809967
  54.0979996 106.6979980  93.2860031  53.0190010 106.5189972  93.0920029
  54.6370010 105.7409973  93.1190033  54.6150017 107.7559967  92.3020020
  55.6769981 107.9800034  92.5410004  54.0349998 108.6930008  92.4359970
  54.5279999 107.3249969  90.8320007  54.9160004 108.1549988  90.2030029
  53.4669991 107.1569977  90.5510025  55.3330002 106.0559998  90.5159988
  56.3359985 106.1279984  90.9889984  54.8149986 105.1740036  90.9479980
  55.5200005 105.8519974  89.0110016  56.1370010 106.6859970  88.6149979
  54.5299988 105.9010010  88.5090027  56.1839981 104.5179977  88.6520004
  57.1230011 104.3929977  89.2330017  55.4939995 103.6920013  88.9250031
  56.4949989 104.4550018  87.1549988  55.5929985 104.8020020  86.6070023
  57.3170013 105.1630020  86.9160004  56.8380013 103.0599976  86.6259995
  57.7700005 102.6859970  87.1019974  56.0120010 102.3619995  86.8809967
  57.0079994 103.0989990  85.1050034  56.0919991 103.5520020  84.6679993
  57.8569984 103.7760010  84.8740005  57.2519989 101.7509995  84.4380035
  57.2999992 101.8690033  83.3339996  58.2159996 101.3259964  84.7900009
  56.4350014 101.0380020  84.6780014  47.1250000 101.5479965 106.8669968
  47.5099983 100.5449982 107.5329971  45.9529991 101.7529984 106.4420013
  48.0900002 102.8040009 106.8529968  50.3429985 103.5199966 107.2979965
  50.2989998 104.1350021 106.3730011  49.4560013 102.3909988 107.1350021
  47.5900002 103.8130035 107.9089966  47.4459991 103.2590027 108.8619995
  46.5929985 104.1930008 107.5979996  48.5190010 104.9599991 108.1669998
  48.5709991 105.5719986 107.2419968  48.0029984 105.7450027 109.2559967
  49.9119987 104.4290009 108.4550018  50.6049995 105.2969971 108.4720001
  50.0000000 103.7730026 109.7259979  49.7820015 104.4049988 110.4150009
  51.7789993 103.0130005 107.4260025  51.8269997 102.3550034 108.3199997
  52.6949997 104.1129990 107.6050034  53.4119987 103.7850037 108.1510010
  52.1800003 102.2080002 106.1940002  51.4140015 101.4349976 105.9720001
  52.2239990 102.8850021 105.3140030  53.4580002 101.5599976 106.3669968
  53.2919998 100.6549988 106.6389999  49.3629990 107.7220001 108.7060013
  49.5000000 108.3929977 107.6460037  50.2260017 107.5839996 109.6200027
  47.9280014 107.1500015 109.0319977  45.6329994 107.0540009 108.2860031
  45.6559982 105.9580002 108.4660034  46.9819984 107.4820023 107.9779968
  47.4290009 107.7050018 110.3799973  47.4889984 108.8130035 110.3359985
  48.1160011 107.3750000 111.1890030  46.0279999 107.3040009 110.7070007
  45.9819984 106.1989975 110.8040009  45.6520004 107.8700027 111.9619980
  45.8409996 107.2529984 112.6729965  45.0960007 107.7009964 109.5709991
  44.0970001 107.2659988 109.7890015  44.9379997 109.1220016 109.4359970
  44.5769997 109.4710007 110.2539978  44.7249985 107.2740021 107.0780029
  44.6349983 108.3659973 106.8970032  43.4160004 106.7300034 107.3339996
  43.0000000 106.6729965 106.4700012  45.2960014 106.6210022 105.8239975
  46.3300018 106.9840012 105.6470032  45.3450012 105.5189972 105.9560013
  44.4949989 106.9420013 104.6679993  44.9399986 106.5830002 103.8970032
  64.4209976  41.4809990 104.3280029  65.2590027  39.8740005 105.3700027
  65.3440018  40.8629990 104.3229980  66.1920013  41.5550003 104.5120010
  65.5220032  40.2389984 102.9430008  64.3649979  39.4309998 102.6669998
  66.4130020  39.5760002 102.9860001  64.5690002  38.6110001 101.5139999
  65.5070038  38.0309982 101.6510010  63.5349998  37.6730003 101.2220001
  62.4259987  37.5950012 102.1309967  62.7150002  37.8740005 103.1660004
  62.1279984  36.5260010 102.1920013  65.7730026  41.2550011 101.8180008
  64.9189987  41.9650002 101.8020020  67.0759964  41.8289986 102.0920029
  67.3939972  43.4399986 102.3539963  68.4889984  43.5289993 103.4300003
  66.0960007  44.0760002 102.8539963  67.8690033  44.0660019 101.0419998
  65.8369980  40.5190010 100.4779968  65.8669968  41.5159988  99.4440002
  66.7870026  39.9449997 100.5270004  66.5360031  41.1949997  98.3379974
  67.1600037  40.1559982  98.1600037  66.1689987  42.1409988  97.2170029
  65.0609970  42.1660004  97.1429977  66.5800018  41.7150002  96.2770004
  64.6949997  39.4939995 100.2890015  63.7490005  40.0750008 100.2480011
  64.7509995  38.6479988  99.0899963  65.0830002  37.7179985  99.2249985
  60.7960014  38.0649986 100.2139969  61.6459999  38.3660011  99.5640030
  60.5569992  36.6660004  99.9950027  59.8120003  36.3479996 100.5110016
  61.2039986  38.3810005 101.6610031  60.3629990  38.0750008 102.3190002
  61.4329987  39.7939987 101.8720016  60.3240013  40.6380005 101.4840012
  60.6920013  41.6860008 101.5169983  59.2019997  40.4630013 102.3389969
  60.2729988  41.6920013 104.3779984  58.3129997  42.7239990 103.1579971
  57.9599991  40.6650009 104.5370026  58.9519997  41.4259987 103.6589966
  59.5900002  38.9189987  99.8669968  58.8300018  38.7039986 100.6490021
  58.9090004  38.6300011  98.6449966  59.5620003  38.7039986  97.4899979
  60.7060013  39.1049995  97.3560028  58.5040016  38.7820015  96.3899994
  58.6850014  39.7140007  95.8119965  57.4900017  38.8390007  96.8399963
  59.9910011  40.3750000 100.0159988  60.9519997  40.4720001  99.4680023
  59.0410004  41.3139992  99.4219971  58.0909996  41.0139999  99.3759995
  66.7460022  43.5330009  97.5250015  66.3280029  43.8660011  98.4990005
  66.3929977  44.4700012  96.5000000  65.1159973  44.7410011  96.3180008
  64.2080002  44.4749985  97.0920029  64.9720001  45.6380005  95.0810013
  65.8239975  46.3520012  95.0559998  64.0339966  46.2239990  95.1890030
  64.9219971  44.8149986  93.7750015  63.9749985  44.2360001  93.7470016
  65.7659988  44.0929985  93.7509995  65.0120010  45.7060013  92.5230026
  66.0159988  46.1809998  92.4889984  64.2570038  46.5159988  92.6110001
  64.7750015  44.9729996  91.1880035  64.8369980  45.7290001  90.3759995
  63.7490005  44.5460014  91.1699982  65.7919998  43.8650017  90.8799973
  65.6460037  43.0410004  91.6110001  66.8219986  44.2560005  91.0220032
  65.6770020  43.2779999  89.4599991  64.6080017  43.0839996  89.2259979
  66.2129974  42.3050003  89.4459991  66.3040009  44.1660004  88.3679962
  67.3740005  44.3260002  88.6200027  65.8000031  45.1559982  88.3499985
  66.2310028  43.5530014  86.9580002  65.1699982  43.4370003  86.6490021
  66.6849976  42.5390015  86.9909973  66.9919968  44.3600006  85.8899994
  68.0469971  44.4420013  86.2300034  66.5780029  45.3889999  85.8290024
  67.0009995  43.7159996  84.4909973  65.9700012  43.7190018  84.0749969
  67.3180008  42.6599998  84.6250000  67.9550018  44.3810005  83.4820023
  68.9700012  44.4350014  83.9309998  67.5960007  45.4179993  83.3099976
  68.0400009  43.6599998  82.1220016  67.0100021  43.5489998  81.7200012
  68.5999985  44.3129997  81.4189987  68.7149963  42.2869987  82.1429977
  68.6500015  41.8050003  81.1439972  68.2229996  41.6290016  82.8909988
  69.7870026  42.3870010  82.4169998  68.2939987  43.5569992  97.6660004
  68.6669998  42.6170006  98.1240005  68.5319977  44.3750000  98.3799973
  69.1019974  43.8639984  96.3860016  70.1869965  43.8240013  96.6240005
  68.8779984  44.9039993  96.0680008  68.8229980  42.9290009  95.2040024
  67.7369995  42.9539986  94.9710007  69.0899963  41.8839989  95.4729996
  69.5530014  43.3479996  93.9260025  70.6470032  43.2190018  94.0670013
  69.3580017  44.4259987  93.7379990  69.0930023  42.5629997  92.6940002
  69.3160019  41.4850006  92.8460007  67.9929962  42.6660004  92.5820007
  69.7720032  43.0559998  91.4189987  70.8710022  43.1069984  91.5719986
  69.4049988  44.0859985  91.2210007  69.4810028  42.2210007  90.1709976
  69.9079971  41.2029991  90.2939987  68.3830032  42.1259995  90.0319977
  70.0830002  42.8940010  88.9369965  69.6360016  43.9049988  88.8270035
  71.1729965  43.0359993  89.0979996  69.8750000  42.1430016  87.6230011
  68.7890015  42.0709991  87.4029999  70.2760010  41.1100006  87.7109985
  70.5749969  42.8680000  86.4749985  70.1409988  43.8880005  86.4079971
  71.6470032  42.9900017  86.7379990  70.4729996  42.1969986  85.1200027
  71.0339966  42.7760010  84.3560028  70.8830032  41.1660004  85.1699982
  69.4079971  42.1380005  84.8079987  64.1669998  38.9510002  97.9169998
  63.7529984  40.0800018  97.6650009  64.0039978  37.7970009  96.9339981
  64.3550034  36.8569984  97.4110031  62.9259987  37.6790009  96.6920013
  64.8059998  38.0390015  95.6399994  65.8399963  38.3370018  95.9150009
  64.1149979  39.0349998  94.8750000  64.8830032  39.8790016  94.1859970
  66.1039963  39.9350014  94.2509995  64.0179977  41.0709991  93.7490005
  64.6650009  41.7859993  93.1969986  63.6559982  41.5660019  94.6750031
  62.8190002  40.6500015  92.8769989  62.0859985  41.4850006  92.8799973
  62.3030014  39.7669983  93.3119965  63.1809998  40.3680000  91.4120026
  63.9440002  39.5620003  91.3479996  63.6209984  41.2900009  90.9759979
  61.9410019  39.9650002  90.5979996  61.0979996  40.6129990  90.9209976
  61.6710014  38.9150009  90.8379974  62.0740013  40.1230011  89.0759964
  62.8549995  39.4360008  88.6880035  62.3899994  41.1660004  88.8570023
  60.7459984  39.8569984  88.3489990  59.9469986  40.4410019  88.8539963
  60.4900017  38.7789993  88.4400024  60.7579994  40.2529984  86.8669968
  61.5239983  39.6510010  86.3320007  61.0460014  41.3230019  86.7850037
  59.4020004  40.0400009  86.1770020  58.6500015  40.7130013  86.6409988
  59.0849991  38.9910011  86.3610001  59.4150009  40.2649994  84.6559982
  58.3950005  40.0709991  84.2610016  60.0970001  39.5190010  84.1940002
  59.8440018  41.6720009  84.2180023  59.1599998  42.4160004  84.6800003
  60.8660011  41.8790016  84.6019974  59.8409996  41.8629990  82.7020035
  58.8289986  41.6609993  82.2910004  60.1250000  42.9049988  82.4380035
  60.5620003  41.1689987  82.2200012  64.8690033  36.7140007  94.8369980
  63.8279991  36.3849983  94.6320038  65.3440018  35.9440002  95.4820023
  65.6370010  36.7560005  93.5070038  66.6989975  37.0340004  93.6829987
  65.1800003  37.5369987  92.8629990  65.5599976  35.4029999  92.7939987
  64.4869995  35.1220016  92.7269974  66.0759964  34.6310005  93.4049988
  66.1299973  35.3880005  91.3710022  65.9459991  34.3810005  90.9400024
  67.2289963  35.5489998  91.3899994  65.4830017  36.4420013  90.4670029
  64.4160004  36.5449982  90.7590027  65.9729996  37.4230003  90.6510010
  65.5339966  36.1059990  88.9739990  65.0189972  35.1360016  88.8099976
  66.5920029  35.9990005  88.6529999  64.8420029  37.1910019  88.1429977
  65.4209976  38.1339989  88.2409973  63.8349991  37.3730011  88.5759964
  64.6679993  36.8600006  86.6539993  65.6610031  36.6440010  86.2050018
  64.0360031  35.9529991  86.5469971  64.0059967  38.0270004  85.9079971
  63.0270004  38.2249985  86.3949966  64.6389999  38.9309998  86.0380020
  63.7639999  37.7999992  84.4140015  63.0439987  36.9609985  84.2979965
  64.7109985  37.4840012  83.9260025  63.2060013  39.0209999  83.6819992
  63.0110016  38.7789993  82.6149979  62.2529984  39.3440018  84.1520004
  63.9259987  39.8660011  83.7279968  58.5839996  37.5600014  95.4570007
  57.7159996  37.6230011  94.7669983  58.4370003  36.3549995  96.2040024
  59.2379990  36.0180016  96.6119995  59.8569984  37.5349998  94.5759964
  60.7669983  37.5359993  95.2139969  59.8590012  38.4790001  93.9899979
  59.9440002  36.3510017  93.5930023  58.9290009  36.0890007  93.2239990
  60.3440018  35.4679985  94.1370010  60.8349991  36.6500015  92.3799973
  61.7599983  37.1739998  92.7030029  60.2869987  37.3330002  91.6969986
  61.2459984  35.3909988  91.6080017  60.3979988  34.6759987  91.5469971
  62.0649986  34.8969994  92.1740036  61.7579994  35.6839981  90.1940002
  62.2980003  36.6539993  90.1869965  62.4879990  34.8959999  89.9089966
  60.6479988  35.7080002  89.1370010  59.9230003  36.5130005  89.3789978
  60.1020012  34.7410011  89.1679993  61.2050018  35.9319992  87.7269974
  62.0279999  35.2080002  87.5449982  61.6469994  36.9510002  87.6809998
  60.1549988  35.7840004  86.6200027  59.7470016  34.7509995  86.6460037
  59.3219986  36.4900017  86.8270035  60.7130013  36.0670013  85.2220001
  61.0460014  37.1259995  85.1869965  61.6049995  35.4290009  85.0459976
  59.7080002  35.8269997  84.0910034  59.3839989  34.7649994  84.1129990
  58.8089981  36.4550018  84.2710037  60.2779999  36.1549988  82.7119980
  59.5340004  35.9459991  81.9140015  60.5699997  37.2260017  82.6569977
  61.1850014  35.5419998  82.5220032  59.4659996  42.3940010  98.7340012
  60.5800018  42.8800011  98.9359970  58.5209999  42.9410019  97.6650009
  58.0439987  43.8750000  98.0319977  57.7260017  42.1879997  97.4789963
  59.2939987  43.1940002  96.3479996  60.0279999  42.3759995  96.1869965
  59.9700012  44.4480019  96.4169998  60.6020012  44.6119995  95.7129974
  58.3460007  43.2179985  95.1309967  57.6899986  44.1129990  95.1829987
  57.6899986  42.3240013  95.1920013  59.0589981  43.1730003  93.7659988
  59.7159996  42.2770004  93.7369995  59.7029991  44.0690002  93.6330032
  58.0610008  43.0929985  92.6019974  57.4930000  44.0439987  92.5279999
  57.3330002  42.2869987  92.8369980  58.6930008  42.7570000  91.2399979
  57.8689995  42.5050011  90.5390015  59.3300018  41.8520012  91.3410034
  59.5219994  43.8870010  90.6060028  58.9249992  44.8240013  90.6250000
  60.4440002  44.0559998  91.2009964  59.8940010  43.5660019  89.1490021
  58.9659996  43.2690010  88.6159973  60.5789986  42.6920013  89.1309967
  60.5349998  44.7270012  88.3730011  59.9150009  45.6380005  88.5149994
  61.5489998  44.9309998  88.7779999  60.6250000  44.4249992  86.8679962
  61.2750015  43.5379982  86.7089996  59.6090012  44.1619987  86.5049973
  61.1469994  45.5919991  86.0169983  60.5330009  46.4949989  86.2220001
  62.1949997  45.8219986  86.3059998  61.0919991  45.2890015  84.5110016
  61.7150002  44.3940010  84.3030014  60.0489998  45.0200005  84.2389984
  61.5559998  46.4430008  83.6230011  61.4500008  46.1749992  82.5490036
  60.9550018  47.3569984  83.8170013  62.6220016  46.6860008  83.8199997
  67.5550003  40.1419983 106.1549988  68.2959976  41.1189995 106.4609985
  67.9300003  39.0589981 105.6190033  66.0159988  40.2519989 106.5220032
  64.2959976  41.6910019 107.4160004  63.6389999  41.3440018 106.5899963
  65.6750031  41.5950012 106.9810028  65.6819992  39.2260017 107.6210022
  66.4079971  39.3750000 108.4489975  65.8509979  38.2019997 107.2249985
  64.2949982  39.3380013 108.1800003  63.5849991  39.0900002 107.3619995
  64.1429977  38.4049988 109.2639999  64.0159988  40.7700005 108.6050034
  62.9309998  40.8450012 108.8330002  64.7379990  41.1549988 109.7819977
  64.4199982  40.6329994 110.5220032  63.9179993  43.1520004 107.6750031
  64.5859985  43.5509987 108.4680023  62.5460014  43.2560005 108.1139984
  62.5079994  43.9780006 108.7460022  64.1009979  43.9669991 106.4010010
  65.1179962  43.7970009 105.9889984  63.3730011  43.6049995 105.6429977
  63.9090004  45.3829994 106.6029968  64.7249985  45.7490005 106.9509964
  61.6829987  38.4860001 109.2429962  60.8300018  38.3199997 108.3280029
  61.5400009  39.1990013 110.2770004  62.9790001  37.5839996 109.2099991
  64.1019974  35.7970009 108.0339966  65.0370026  36.3959999 108.0729980
  62.9780006  36.7109985 108.0439987  63.0699997  36.7449989 110.4990005
  62.1150017  36.1879997 110.6100006  63.1539993  37.4230003 111.3740005
  64.2040024  35.7750015 110.4929962  65.1620026  36.3330002 110.4280014
  64.2040024  35.0400009 111.7160034  64.6370010  35.5470009 112.4059982
  64.1200027  34.8820000 109.2639999  65.0479965  34.2729988 109.2320023
  63.0000000  33.9840012 109.2910004  63.0589981  33.4430008 110.0820007
  64.1320038  35.0309982 106.7139969  63.2029991  34.4259987 106.6350021
  65.2679977  34.1469994 106.6640015  65.3359985  33.8849983 105.7429962
  64.1969986  35.9869995 105.5289993  63.3689995  36.7260017 105.5839996
  65.1520004  36.5540009 105.5630035  64.0899963  35.2700005 104.2829971
  64.5419998  35.7859993 103.6119995 101.6110001 136.0130005 104.5540009
 103.2419968 135.4010010 105.7170029 102.7099991 136.1640015 104.6179962
 102.8809967 137.2480011 104.7880020 103.3479996 135.7749939 103.2860031
 102.9670029 134.4259949 102.9820023 104.4509964 135.8370056 103.4010010
 103.7730026 133.8820038 101.9300003 104.8420029 133.8209991 102.2279968
 103.2969971 132.6260071 101.5049973 103.4130020 131.5549927 102.4400024
 103.3310013 131.9179993 103.4869995 104.3909988 131.0449982 102.3109970
 102.9179993 136.6560059 102.1050034 101.8209991 136.5240021 101.9929962
 103.2710037 138.0180054 102.3860016 102.1689987 139.2799988 102.4199982
 102.8870010 140.4270020 103.1419983 100.9240036 138.8300018 103.1930008
 101.8440018 139.6640015 100.9729996 103.5930023 136.1920013 100.8119965
 102.8870010 136.7960052  99.7139969 104.6549988 136.5149994 100.8669968
 103.5630035 137.0769958  98.6090012 104.7809982 137.0279999  98.4889984
 102.6139984 137.1269989  97.4219971 101.9430008 136.2429962  97.4629974
 103.2259979 137.0630035  96.4970016 103.5910034 134.6719971 100.6399994
 102.5500031 134.4470062 100.3239975 104.5279999 134.1900024  99.6149979
 105.4840012 134.1009979  99.8840027 102.3040009 130.1499939 100.6360016
 102.4860001 131.0529938 100.0149994 103.3870010 129.2469940 100.3730011
 103.2679977 128.4140015 100.8349991 102.2649994 130.6020050 102.1149979
 102.3730011 129.6959991 102.7490005 101.0540009 131.2729950 102.5729980
  99.8130035 130.8930054 101.9449997  99.1780014 131.7980042 102.0510025
  99.2630005 129.7960052 102.6610031  97.8020020 129.1260071 104.6090012
  97.1579971 131.1950073 103.3040009  96.9189987 128.8939972 102.2710037
  97.7190018 129.7769928 103.2279968 100.9599991 129.5890045 100.2220001
 100.7269974 128.7640076 100.9290009 100.9100037 128.9869995  98.9240036
 101.2839966 129.6920013  97.8570023 101.4150009 130.9040070  97.8160019
 101.0520020 128.8220062  96.6299973 100.4830017 129.4120026  95.8799973
 100.4550018 127.9260025  96.9069977  99.9499969 130.6920013 100.4430008
 100.4100037 131.6219940 100.0449982  98.6849976 130.5000000  99.7490005
  98.4329987 129.5579987  99.5449982 101.8320007 138.4459991  97.4530029
 101.3489990 138.5480042  98.4479980 100.8389969 138.4530029  96.4209976
  99.8059998 137.6439972  96.5759964  99.5199966 137.0319977  97.5950012
  98.9140015 137.7380066  95.3330002  98.8519974 138.8049927  95.0309982
  97.8939972 137.3910065  95.6070023  99.4710007 136.8930054  94.1669998
  99.3539963 135.8139954  94.4020004 100.5550003 137.1029968  94.0469971
  98.7799988 137.1959991  92.8300018  98.9589996 138.2619934  92.5709991
  97.6839981 137.0579987  92.9520035  99.2559967 136.3179932  91.6569977
  98.7099991 136.6349945  90.7429962  98.9830017 135.2590027  91.8560028
 100.7679977 136.3890076  91.3820038 101.3050003 135.9279938  92.2389984
 101.0910034 137.4499969  91.3180008 101.1969986 135.6569977  90.0999985
 100.6729965 134.6799927  90.0319977 102.2870026 135.4510040  90.1620026
 100.9509964 136.4830017  88.8300018 101.5240021 137.4299927  88.9270020
  99.8740005 136.7440033  88.7509995 101.3919983 135.7799988  87.5390015
 100.7350006 134.9060059  87.3430023 102.4290009 135.4040070  87.6740036
 101.3799973 136.7319946  86.3349991 102.0400009 137.5879974  86.5889969
 100.3580017 137.1329956  86.1699982 101.9059982 136.1069946  85.0350037
 102.7500000 135.4239960  85.2710037 102.3099976 136.9230042  84.3980026
 100.8399963 135.3509979  84.2330017 100.0199966 136.0469971  83.9550018
 100.4069977 134.5599976  84.8820038 101.3659973 134.6759949  82.9580002
 102.1589966 133.9570007  83.2559967 100.5350037 134.0890045  82.5120010
 101.9469986 135.5950012  81.8830032 102.3529968 134.9920044  81.0429993
 102.7669983 136.2220001  82.2949982 101.1630020 136.2709961  81.4810028
 102.7450027 139.6860046  97.2440033 103.7509995 139.5000000  97.6770020
 102.2880020 140.5119934  97.8310013 102.8919983 140.2089996  95.7949982
 103.5090027 141.1329956  95.8170013 101.8850021 140.4980011  95.4280014
 103.5139999 139.2350006  94.7799988 102.9479980 138.2790070  94.7829971
 104.5660019 139.0160065  95.0579987 103.4459991 139.7890015  93.3489990
 103.9779968 140.7640076  93.3010025 102.3779984 139.9700012  93.1029968
 104.0289993 138.8450012  92.2860031 105.1289978 138.7760010  92.4260025
 103.6050034 137.8269958  92.4150009 103.7160034 139.3359985  90.8659973
 103.9609985 140.4179993  90.8119965 102.6269989 139.2259979  90.6750031
 104.4960022 138.6239929  89.7539978 105.5839996 138.7660065  89.9309998
 104.2860031 137.5330048  89.7839966 104.1289978 139.1710052  88.3659973
 103.0940018 138.8500061  88.1200027 104.1380005 140.2819977  88.4020004
 105.0810013 138.7180023  87.2529984 105.1689987 137.6109924  87.2689972
 106.0869980 139.1450043  87.4560013 104.6200027 139.1600037  85.8580017
 103.7379990 138.5509949  85.5640030 104.2860031 140.2189941  85.9010010
 105.7060013 139.0290070  84.7939987 105.3199997 139.3110046  83.7910004
 106.5540009 139.7059937  85.0319977 106.0759964 137.9819946  84.7450027
 104.1419983 133.8040009  98.3850021 102.9810028 133.9400024  98.0070038
 105.2109985 133.1799927  97.4919968 106.2099991 133.3229980  97.9580002
 105.0130005 132.0910034  97.3960037 105.1959991 133.8529968  96.1019974
 105.2600021 134.9510040  96.2649994 103.9899979 133.4539948  95.4280014
 103.3769989 134.4199982  94.7389984 103.8410034 135.5339966  94.5339966
 101.8590012 134.1809998  94.7750015 101.3970032 134.9940033  94.1750031
 101.5189972 134.2850037  95.8280029 101.4309998 132.8209991  94.2030029
 100.3249969 132.7429962  94.2659988 101.8619995 132.0010071  94.8160019
 101.8550034 132.6589966  92.7419968 102.9639969 132.6340027  92.6819992
 101.5070038 133.5390015  92.1600037 101.2910004 131.3919983  92.0879974
 100.1809998 131.4420013  92.0759964 101.5879974 130.5010071  92.6809998
 101.8050003 131.2220001  90.6569977 102.9160004 131.1950073  90.6770020
 101.5080032 132.1139984  90.0650024 101.2949982 129.9689941  89.9339981
 100.1869965 130.0290070  89.8750000 101.5500031 129.0520020  90.5070038
 101.8679962 129.8739929  88.5130005 102.7050018 129.1439972  88.4899979
 102.2949982 130.8719940  88.2760010 100.8130035 129.5310059  87.4489975
  99.9560013 130.2259979  87.5780029 100.4449997 128.4969940  87.6190033
 101.2959976 129.6519928  85.9940033 100.4449997 129.4160004  85.3209991
 102.0920029 128.8999939  85.8069992 101.8290024 131.0449982  85.6259995
 101.0550003 131.8029938  85.8700027 102.7239990 131.2599945  86.2480011
 102.2350006 131.1869965  84.1679993 102.9670029 130.3899994  83.9140015
 101.3560028 131.1020050  83.4940033 102.7360001 132.1640015  83.9980011
 106.4390030 133.4230042  95.2819977 106.3870010 132.3309937  95.0859985
 107.3399963 133.6109924  95.9039993 106.6200027 134.1670074  93.9489975
 106.6370010 135.2619934  94.1350021 105.7429962 133.9490051  93.3010025
 107.8990021 133.7579956  93.2080002 107.8450012 132.6679993  92.9960022
 108.7789993 133.9259949  93.8639984 108.1190033 134.4989929  91.8809967
 109.0540009 134.1139984  91.4209976 108.2559967 135.5859985  92.0680008
 106.9720001 134.3090057  90.8789978 106.7379990 133.2250061  90.8040009
 106.0619965 134.8289948  91.2460022 107.3219986 134.8309937  89.4830017
 108.2249985 134.2920074  89.1240005 107.5680008 135.9120026  89.5459976
 106.1959991 134.6320038  88.4629974 105.3379974 135.2879944  88.7239990
 105.8470001 133.5789948  88.5100021 106.6589966 134.9199982  87.0319977
 107.0719986 135.9499969  86.9779968 107.4690018 134.2030029  86.7809982
 105.5380020 134.7749939  85.9990005 105.0090027 133.8150024  86.1809998
 104.8020020 135.5970001  86.1279984 106.0640030 134.7669983  84.5609970
 106.7720032 133.9160004  84.4660034 106.6330032 135.7019958  84.3700027
 104.9729996 134.6130066  83.5110016 104.3809967 133.6920013  83.6999969
 104.2839966 135.4839935  83.5599976 105.4059982 134.5509949  82.4909973
 102.3889999 128.3609924  96.0299988 102.1370010 127.5899963  95.2710037
 103.1959991 127.7310028  97.0199966 103.6159973 128.3099976  97.6610031
 103.1790009 129.4530029  95.2779999 103.4889984 130.2649994  95.9700012
 102.4869995 129.8939972  94.5279999 104.4020004 128.8999939  94.5220032
 104.1259995 127.9250031  94.0660019 105.2109985 128.7109985  95.2600021
 104.9349976 129.8059998  93.4010010 105.1579971 130.8159943  93.8069992
 104.1460037 129.9210052  92.6279984 106.2020035 129.2299957  92.7429962
 106.0049973 128.1849976  92.4199982 107.0120010 129.1979980  93.5019989
 106.7149963 130.0200043  91.5279999 106.8270035 131.0930023  91.7929993
 107.7210007 129.6300049  91.2630005 105.8450012 129.8939972  90.2710037
 104.8659973 130.3869934  90.4469986 105.6539993 128.8179932  90.0699997
 106.5130005 130.5099945  89.0339966 107.4690018 129.9759979  88.8479996
 106.7500000 131.5760040  89.2389984 105.6419983 130.4290009  87.7750015
 105.2740021 129.3869934  87.6579971 104.7529984 131.0829926  87.9089966
 106.3769989 130.8260040  86.4869995 106.8470001 131.8229980  86.6230011
 107.1839981 130.0870056  86.2939987 105.4390030 130.8820038  85.2760010
 104.8119965 129.9640045  85.2730026 104.7549973 131.7460022  85.4189987
 106.1139984 131.0079956  83.9169998 105.3489990 131.0930023  83.1149979
 106.7669983 131.9060059  83.8779984 106.7409973 130.1139984  83.7089996
  97.9729996 131.5339966  99.2630005  98.1800003 132.6979980  99.6169968
  96.9199982 131.1829987  98.2229996  95.9570007 131.6710052  98.4879990
  96.7710037 130.0820007  98.2279968  97.4079971 131.6170044  96.8270035
  98.4599991 131.2859955  96.6940002  97.3300018 133.0339966  96.6920013
  97.7939987 133.3959961  95.9329987  96.5609970 130.9609985  95.7160034
  95.5220032 131.3540039  95.7580032  96.5159988 129.8699951  95.9219971
  97.1340027 131.1540070  94.3020020  98.1959991 130.8280029  94.3040009
  97.1119995 132.2310028  94.0279999  96.3840027 130.3509979  93.2310028
  95.3460007 130.7330017  93.1210022  96.3190002 129.2980042  93.5770035
  97.0970001 130.3529968  91.8700027  96.6969986 129.5160065  91.2580032
  98.1780014 130.1589966  92.0329971  96.9410019 131.6479950  91.0520020
  95.8700027 131.7720032  90.7850037  97.2519989 132.5260010  91.6579971
  97.7819977 131.5890045  89.7679977  97.6709976 130.5700073  89.3399963
  98.8539963 131.7209930  90.0279999  97.4020004 132.5910034  88.6689987
  96.3040009 132.5399933  88.5039978  97.6589966 133.6239929  88.9869995
  98.1159973 132.2559967  87.3499985  99.2129974 132.3650055  87.4850006
  97.9219971 131.1860046  87.1220016  97.6719971 133.0780029  86.1330032
  96.5619965 133.0870056  86.0839996  98.0260010 134.1250000  86.2470016
  98.2109985 132.4920044  84.8219986  99.3199997 132.4440002  84.8779984
  97.8470001 131.4470062  84.7190018  97.8399963 133.2630005  83.5640030
  98.2139969 132.7319946  82.6630020  96.7389984 133.3829956  83.4739990
  98.3079987 134.2709961  83.5899963 103.6900024 137.3659973 107.1559982
 103.0979996 138.2590027 107.8239975 104.9120026 137.3699951 106.8310013
 102.9380035 135.9810028 106.9899979 100.8079987 134.8860016 107.2440033
 101.0189972 134.3329926 106.3040009 101.5059967 136.1519928 107.1890030
 103.5240021 135.0000000 108.0250015 103.5279999 135.5119934 109.0110016
 104.5839996 134.8000031 107.7570038 102.7760010 133.7100067 108.1780014
 102.8730011 133.1399994 107.2289963 103.3539963 132.9669952 109.2649994
 101.3040009 134.0059967 108.3980026 100.7559967 133.0410004 108.3440018
 101.0419998 134.5870056 109.6819992 101.2750015 133.9510040 110.3619995
  99.3010025 135.1380005 107.2809982  99.0650024 135.7230072 108.1959991
  98.5749969 133.8950043 107.3229980  97.6650009 134.1280060 107.1259995
  98.8550034 135.9270020 106.0569992  99.4560013 136.8569946 105.9589996
  99.0390015 135.3220062 105.1429977  97.4570007 136.2790070 106.1259995
  97.3909988 137.0930023 106.6320038 102.3580017 130.8150024 108.6230011
 102.3740005 130.1060028 107.5800018 101.4479980 130.8300018 109.5009995
 103.6750031 131.6040039 108.9940033 105.9260025 132.1139984 108.3119965
 105.6859970 133.1690063 108.5630035 104.6800003 131.4739990 107.9479980
 104.2330017 131.0950012 110.3389969 104.3529968 129.9940033 110.2620010
 103.4879990 131.2839966 111.1409988 105.5439987 131.7059937 110.7109985
 105.4079971 132.8000031 110.8460007 105.9889984 131.1620026 111.9530029
 105.6989975 131.7180023 112.6800003 106.5479965 131.5180054 109.5810013
 107.4550018 132.1049957 109.8420029 106.9489975 130.1540070 109.3899994
 107.3209991 129.8209991 110.2099991 106.8960037 132.1699982 107.1340027
 107.2699966 131.1470032 106.9150009 108.0009995 133.0310059 107.4759979
 108.3509979 133.3320007 106.6340027 106.2040024 132.7070007 105.8830032
 105.3860016 132.0189972 105.5830002 105.7480011 133.6929932 106.1169968
 107.0999985 132.8419952 104.7710037 107.2389984 131.9510040 104.4420013
  61.6580009 126.8109970 104.5380020  62.0550003 125.0950012 105.6699982
  62.4070015 125.9919968 104.5989990  63.3950005 126.4599991 104.7969971
  62.4729996 125.2419968 103.2710037  61.1829987 124.6760025 102.9940033
  63.2130013 124.4240036 103.4029999  61.2830009 123.7009964 101.9520035
  62.1150017 123.0009995 102.1760025  60.1310005 122.9029999 101.7409973
  59.0169983 123.1179962 102.6200027  59.3250008 123.5120010 103.6119995
  58.5540009 122.1279984 102.8219986  62.8959999 126.0839996 102.0530014
  62.1520004 126.9020004 101.9509964  64.2170029 126.6039963 102.2969971
  64.5800018 128.2389984 102.3539963  63.5789986 128.9140015 103.2939987
  64.4980011 128.7890015 100.9300003  66.0149994 128.3589935 102.8960037
  62.8520012 125.2399979 100.7639999  63.0070000 126.1269989  99.6419983
  63.6949997 124.5230026 100.8610001  63.7480011 125.7060013  98.6190033
  64.3649979 124.6470032  98.5830002  63.4469986 126.5299988  97.3799973
  62.3800011 126.8399963  97.4020004  63.6010017 125.8830032  96.4899979
  61.5789986 124.3880005 100.6340027  60.7239990 125.0699997 100.4410019
  61.6389999 123.3980026  99.5569992  61.8800011 122.4700012  99.8280029
  57.6349983 123.5719986 100.5410004  58.5699997 123.6650009  99.9489975
  57.2179985 122.1999969 100.4850006  56.3629990 122.0729980 100.9039993
  57.9529991 124.0039978 101.9749985  57.0279999 123.8799973 102.5780029
  58.3300018 125.3970032 102.0699997  57.3870010 126.3079987 101.4589996
  57.9399986 127.2699966 101.4120026  56.2169991 126.4290009 102.2679977
  56.8510017 128.7209930 103.3099976  55.0079994 128.6029968 101.5609970
  54.6320000 127.6320038 103.8619995  55.6629982 127.9199982 102.7659988
  56.6040001 124.5009995  99.9390030  55.7179985 124.4759979 100.6090012
  56.1199989 124.0569992  98.6650009  57.0000000 123.8980026  97.6729965
  58.0299988 124.5309982  97.5299988  56.3310013 123.0739975  96.5790024
  56.3580017 123.6589966  95.6350021  55.2649994 122.9179993  96.8529968
  57.1489983 125.9120026 100.0000000  58.1599998 125.8690033  99.5410004
  56.3759995 126.8769989  99.2399979  55.4220009 126.6539993  99.0599976
  64.3889999 127.7379990  97.3440018  64.2600021 128.3029938  98.2919998
  64.0699997 128.5740051  96.2259979  62.9189987 129.2230072  96.2890015
  62.2210007 129.3560028  97.2829971  62.6290016 129.8690033  94.9319992
  63.5789986 130.2819977  94.5289993  61.9199982 130.7089996  95.0940018
  62.0309982 128.8459930  93.9420013  61.0379982 128.5070038  94.3089981
  62.6949997 127.9570007  93.8899994  61.8790016 129.4219971  92.5279999
  62.8670006 129.8000031  92.1880035  61.1819992 130.2870026  92.5599976
  61.3699989 128.4109955  91.4860001  61.2560005 128.9550018  90.5230026
  60.3619995 128.0370026  91.7669983  62.3100014 127.2109985  91.2669983
  61.9490013 126.3610001  91.8840027  63.3310013 127.4670029  91.6250000
  62.4179993 126.7730026  89.7979965  61.3969994 126.7160034  89.3629990
  62.8619995 125.7559967  89.7509995  63.2919998 127.7210007  88.9619980
  64.3470001 127.6340027  89.2990036  62.9620018 128.7649994  89.1470032
  63.2169991 127.4720001  87.4499969  62.1469994 127.4800034  87.1520004
  63.6320000 126.4700012  87.2080002  63.9560013 128.5520020  86.6449966
  65.0510025 128.4530029  86.8030014  63.6409988 129.5460052  87.0289993
  63.6440010 128.5070038  85.1449966  62.5400009 128.4620056  85.0240021
  64.0680008 127.5749969  84.7149963  64.1579971 129.7310028  84.3690033
  65.2620010 129.7940063  84.4680023  63.7190018 130.6439972  84.8270035
  63.7840004 129.7140045  82.8799973  62.6860008 129.5659943  82.7939987
  64.0169983 130.7039948  82.4349976  64.4929962 128.6280060  82.0800018
  64.1050034 128.5850067  81.0390015  64.3290024 127.6289978  82.5380020
  65.5879974 128.8159943  82.0490036  65.8870010 127.3420029  97.2429962
  66.0930023 126.4380035  97.8550034  66.4599991 128.1750031  97.7020035
  66.4749985 127.1399994  95.8270035  67.5419998 126.8560028  95.9459991
  66.4449997 128.1130066  95.2910004  65.8239975 126.0780029  94.9290009
  64.7600021 126.3470001  94.7519989  65.8570023 125.0830002  95.4229965
  66.5179977 126.0100021  93.5599976  67.5869980 125.7360001  93.6940002
  66.4899979 127.0260010  93.1110001  65.8659973 125.0319977  92.5729980
  65.9609985 123.9919968  92.9530029  64.7839966 125.2699966  92.4980011
  66.4899979 125.1350021  91.1740036  67.5589981 124.8359985  91.2190018
  66.4520035 126.2009964  90.8629990  65.7689972 124.3099976  90.0989990
  65.8939972 123.2249985  90.3020020  64.6829987 124.5419998  90.1490021
  66.2699966 124.6460037  88.6869965  66.1900024 125.7460022  88.5520020
  67.3430023 124.3720016  88.5960007  65.4700012 123.9759979  87.5609970
  64.3899994 124.1849976  87.7180023  65.6129990 122.8750000  87.6070023
  65.8700027 124.4960022  86.1740036  65.7320023 125.5979996  86.1729965
  66.9509964 124.2979965  86.0139999  65.0759964 123.9079971  85.0110016
  65.4240036 124.3450012  84.0500031  65.2030029 122.8050003  84.9680023
  63.9930000 124.1320038  85.1259995  61.3180008 123.6370010  98.2720032
  60.9949989 124.7539978  97.8789978  61.3889999 122.4309998  97.3430023
  62.0629997 121.6719971  97.7949982  60.3740005 121.9899979  97.2460022
  61.9389992 122.8099976  95.9469986  62.8750000 123.3929977  96.0810013
  60.9199982 123.5380020  95.2470016  61.3300018 124.5370026  94.4690018
  62.4939995 124.8809967  94.3119965  60.1370010 125.4729996  94.2099991
  60.5250015 126.3960037  93.7289963  59.6980019 125.7419968  95.1940002
  59.0760002 124.8199997  93.3069992  58.1409988 125.4160004  93.3710022
  58.8450012 123.7939987  93.6660004  59.5079994 124.7669983  91.8399963
  60.4930000 124.2600021  91.7549973  59.6380005 125.8099976  91.4789963
  58.4949989 124.0380020  90.9420013  57.4659996 124.3769989  91.1890030
  58.5540009 122.9509964  91.1650009  58.7360001 124.2590027  89.4410019
  58.1539993 123.5029984  88.8720016  59.8120003 124.1050034  89.2119980
  58.3009987 125.6510010  88.9589996  58.8300018 126.4339981  89.5439987
  57.2130013 125.7689972  89.1520004  58.5639992 125.9049988  87.4680023
  58.1440010 125.0709991  86.8669968  59.6609993 125.9300003  87.2939987
  57.9329987 127.2210007  86.9919968  58.2649994 128.0449982  87.6589966
  56.8300018 127.1269989  87.0889969  58.2659988 127.6179962  85.5510025
  57.5349998 128.3899994  85.2289963  58.1520004 126.7429962  84.8769989
  59.6660004 128.2209930  85.3929977  59.7750015 129.0440063  86.1309967
  60.4259987 127.4469986  85.6370010  59.9329987 128.7729950  83.9990005
  59.1150017 129.4579926  83.6900024  60.8899994 129.3359985  83.9759979
  59.9850006 127.9369965  83.2689972  62.2739983 121.5049973  95.1770020
  61.3409996 120.9089966  95.0839996  62.9799995 120.9189987  95.8030014
  62.9029999 121.6600037  93.7799988  63.8320007 122.2639999  93.8580017
  62.1959991 122.2040024  93.1169968  63.2299995 120.2919998  93.1559982
  62.2869987 119.7160034  93.0490036  63.8860016 119.7320023  93.8560028
  63.9259987 120.3509979  91.7860031  64.1829987 119.3089981  91.4970016
  64.8769989 120.9199982  91.8679962  63.0649986 120.9540024  90.6640015
  62.0489998 120.5070038  90.7149963  62.9640007 122.0490036  90.8219986
  63.6419983 120.6780014  89.2669983  63.7470016 119.5790024  89.1429977
  64.6549988 121.1289978  89.1930008  62.7729988 121.2160034  88.1220016
  62.7550011 122.3259964  88.1709976  61.7319984 120.8519974  88.2519989
  63.2750015 120.7750015  86.7379990  64.3339996 121.0910034  86.6240005
  63.2369995 119.6669998  86.6809998  62.4630013 121.3649979  85.5780029
  61.3899994 121.1110001  85.7119980  62.5530014 122.4720001  85.6080017
  62.9189987 120.8679962  84.1989975  62.7350006 119.7730026  84.1389999
  64.0139999 121.0319977  84.1070023  62.2150002 121.5650024  83.0350037
  61.1150017 121.4260025  83.1070023  62.4239998 122.6559982  83.0619965
  62.5639992 121.1640015  82.0599976  56.9939995 121.6900024  96.3590012
  56.1790009 120.9609985  96.1630020  57.7109985 121.2300034  97.5019989
  57.1910019 121.0339966  98.2850037  57.8940010 121.6289978  95.1080017
  58.8250008 122.2070007  95.2929993  57.3479996 122.1129990  94.2710037
  58.2410011 120.1930008  94.6729965  57.2960014 119.6110001  94.6200027
  58.8860016 119.7210007  95.4440002  58.9319992 120.1029968  93.3030014
  59.9239998 120.6009979  93.3509979  58.3149986 120.6490021  92.5589981
  59.1080017 118.6460037  92.8389969  58.1069984 118.1660004  92.8020020
  59.7109985 118.1009979  93.5970001  59.7789993 118.4749985  91.4639969
  60.8170013 118.8690033  91.5100021  59.8450012 117.3870010  91.2460022
  59.0349998 119.1640015  90.3089981  59.1290016 120.2639999  90.4280014
  57.9560013 118.9059982  90.3679962  59.5579987 118.7639999  88.9199982
  59.4029999 117.6740036  88.7740021  60.6500015 118.9609985  88.8750000
  58.8740005 119.5309982  87.7770004  57.7719994 119.4120026  87.8600006
  59.1090012 120.6110001  87.8889999  59.3219986 119.0690002  86.3820038
  60.4309998 119.1090012  86.3339996  59.0130005 118.0130005  86.2249985
  58.7620010 119.9380035  85.2460022  57.6529999 119.9570007  85.3069992
  59.1230011 120.9779968  85.3949966  59.1759987 119.4739990  83.8509979
  58.8499985 120.2139969  83.0889969  60.2789993 119.3629990  83.7870026
  58.7010002 118.4990005  83.6090012  56.9199982 128.0149994  98.7750015
  58.0730019 128.3540039  99.0520020  56.0489998 128.8489990  97.8519974
  55.8310013 129.8329926  98.3199997  55.0859985 128.3170013  97.6959991
  56.7610016 129.0119934  96.4970016  57.3759995 128.1139984  96.2770004
  57.5919991 130.1699982  96.5250015  58.1689987 130.2760010  95.7649994
  55.7379990 129.1499939  95.3560028  55.1570015 130.0899963  95.4710007
  55.0239983 128.3040009  95.4469986  56.3650017 129.0789948  93.9560013
  57.0740013 128.2239990  93.9240036  56.9399986 130.0059967  93.7470016
  55.3069992 128.8639984  92.8690033  54.6010017 129.7209930  92.8580017
  54.7249985 127.9550018  93.1289978  55.9070015 128.6670074  91.4710007
  55.1150017 128.2400055  90.8199997  56.7360001 127.9290009  91.5169983
  56.3979988 129.9720001  90.8259964  55.5699997 130.7129974  90.8659973
  57.2519989 130.3899994  91.4010010  56.8030014 129.7810059  89.3590012
  56.0550003 129.1239929  88.8679962  57.7840004 129.2610016  89.3180008
  56.8750000 131.0930023  88.5650024  55.9370003 131.6640015  88.7350006
  57.7220001 131.7039948  88.9440002  57.0410004 130.8509979  87.0579987
  58.0190010 130.3529968  86.8840027  56.2509995 130.1490021  86.7180023
  56.9720001 132.1080017  86.1800003  55.9609985 132.5619965  86.2539978
  57.7080002 132.8569946  86.5429993  57.2809982 131.7790070  84.7129974
  58.3050003 131.3489990  84.6640015  56.5789986 130.9900055  84.3690033
  57.1969986 132.9759979  83.7669983  57.4550018 132.6679993  82.7310028
  56.1669998 133.3910065  83.7679977  57.9029999 133.7749939  84.0800018
  64.0619965 125.4729996 107.0640030  64.6100006 126.2679977 107.8799973
  64.6060028 124.4560013 106.5469971  62.4830017 125.5540009 106.9530029
  60.5960007 127.0019989 107.3150024  60.1640015 126.6289978 106.3610001
  62.0359993 126.9100037 107.2310028  61.8670006 124.5490036 107.9479980
  62.3520012 124.7139969 108.9329987  62.1250000 123.5169983 107.6259995
  60.3820000 124.6729965 108.1309967  59.8950005 124.3919983 107.1729965
  59.9679985 123.7789993 109.1790009  60.0299988 126.1179962 108.4290009
  58.9230003 126.2129974 108.3899994  60.4599991 126.5339966 109.7320023
  59.9749985 126.0329971 110.3909988  60.1860008 128.4669952 107.4469986
  60.6069984 128.8659973 108.3939972  58.7519989 128.5959930 107.4840012
  58.5810013 129.5119934 107.2559967  60.7270012 129.2929993 106.2850037
  61.8289986 129.1649933 106.2210007  60.2929993 128.9299927 105.3290024
  60.4410019 130.6959991 106.4599991  60.8520012 131.1670074 105.7310028
  57.5859985 123.9430008 108.5899963  57.0839996 123.8850021 107.4329987
  57.1920013 124.6709976 109.5459976  58.8059998 122.9970016 108.9110031
  60.0950012 121.1149979 108.1279984  61.0099983 121.7099991 108.3359985
  59.0260010 122.0439987 107.8330002  58.5649986 122.2360001 110.2310028
  57.5929985 121.7040024 110.1429977  58.4620018 122.9649963 111.0630035
  59.6380005 121.2480011 110.5490036  60.5989990 121.7890015 110.6770020
  59.3349991 120.5930023 111.7809982  59.7290001 121.0719986 112.5139999
  59.8129997 120.2799988 109.3870010  60.7070007 119.6569977 109.5999985
  58.6949997 119.3960037 109.2119980  58.5589981 118.9069977 110.0270004
  60.4090004 120.2620010 106.9020004  59.5449982 119.5920029 106.7020035
  61.5810013 119.4599991 107.1449966  61.8409996 119.1409988 106.2770004
  60.6489983 121.1269989 105.6679993  59.7680016 121.7819977 105.4960022
  61.5299988 121.7839966 105.8259964  60.8450012 120.3099976 104.4970016
  60.7610016 120.8769989 103.7269974  37.4010010  74.9550018 104.3010025
  38.0870018  76.4599991 105.5859985  37.3230019  76.0550003 104.4329987
  36.2470016  76.2919998 104.5800018  37.8019981  76.7590027 103.1630020
  39.1599998  76.3809967 102.8949966  37.7739983  77.8509979 103.3690033
  39.7039986  77.1920013 101.8479996  39.4309998  78.2519989 102.0390015
  41.1189995  77.1709976 101.7220001  41.8400002  76.2440033 102.5520020
  41.3390007  76.0619965 103.5260010  42.8149986  76.7160034 102.8000031
  36.9410019  76.4619980 101.9199982  36.8740005  75.3560028 101.8410034
  35.6609993  77.0690002 102.1449966  34.2010002  76.2559967 102.1119995
  33.2379990  77.1119995 102.9440002  34.3909988  74.8659973 102.7340012
  33.7430000  76.1839981 100.6529999  37.5660019  76.9899979 100.6169968
  36.8769989  76.3730011  99.5139999  37.4210014  78.0910034 100.6480026
  36.5489998  77.1460037  98.4769974  36.7859993  78.3440018  98.3909988
  36.2369995  76.2890015  97.2620010  36.8800011  75.3830032  97.2809982
  36.4780006  76.8740005  96.3489990  39.0870018  76.7890015 100.5240021
  39.2910004  75.7050018 100.3880005  39.7039986  77.5169983  99.4120026
  40.0999985  78.4049988  99.6340027  42.8079987  75.1480026 100.4769974
  42.0919991  75.7419968  99.8690033  44.0219994  75.9049988 100.5759964
  44.7109985  75.4169998 101.0339966  42.1489983  74.9280014 101.8430023
  42.8759995  74.3820038 102.4810028  40.9550018  74.1119995 101.7860031
  41.1010017  72.8740005 101.0550003  40.0610008  72.5230026 100.8830032
  41.8530006  71.9270020 101.8089981  40.0219994  70.8229980 103.2570038
  40.7239990  69.7249985 101.0709991  42.3059998  69.7620010 103.0390015
  41.1769981  70.4990005 102.3099976  43.0250015  73.8050003  99.8140030
  43.6119995  73.1949997 100.5339966  43.8190002  73.7959976  98.6250000
  43.4770012  74.5849991  97.6149979  42.4290009  75.1979980  97.5139999
  44.4480019  74.3229980  96.4729996  43.8860016  73.8560028  95.6370010
  45.2360001  73.6139984  96.8050003  41.6710014  73.1419983  99.6640015
  41.0060005  73.9010010  99.1999969  41.6710014  71.9800034  98.7890015
  42.5340004  71.4919968  98.6859970  34.7449989  75.9390030  97.2839966
  34.5050011  75.4960022  98.2740021  34.4420013  75.0019989  96.2460022
  34.9319992  73.7829971  96.3850021  35.4099998  73.3160019  97.4100037
  34.5369987  72.9540024  95.1600037  33.4500008  73.0989990  94.9820023
  34.7159996  71.8830032  95.3949966  35.3359985  73.3629990  93.9029999
  36.4090004  73.1100006  94.0380020  35.2639999  74.4629974  93.7620010
  34.8050003  72.6780014  92.6360016  33.7519989  72.9940033  92.4779968
  34.8050003  71.5780029  92.7919998  35.6100006  72.9929962  91.3629990
  35.1150017  72.4800034  90.5120010  36.6329994  72.5719986  91.4580002
  35.7229996  74.4950027  91.0500031  36.3969994  74.9619980  91.8000031
  34.7270012  74.9749985  91.1569977  36.2649994  74.7979965  89.6439972
  37.1800003  74.1969986  89.4560013  36.5540009  75.8700027  89.6060028
  35.2340012  74.5510025  88.5299988  34.3300018  75.1589966  88.7490005
  34.9350014  73.4810028  88.5309982  35.7459984  74.9229965  87.1320038
  36.6409988  74.3099976  86.8939972  36.0589981  75.9889984  87.1360016
  34.6899986  74.7200012  86.0360031  33.7960014  75.3300018  86.2819977
  34.3829994  73.6520004  86.0230026  35.1889992  75.1149979  84.6380005
  36.0970001  74.5210037  84.3970032  35.4830017  76.1859970  84.6579971
  34.1380005  74.8870010  83.5400009  33.2379990  75.4970016  83.7699966
  33.8359985  73.8180008  83.5579987  34.6279984  75.2300034  82.1230011
  35.5209999  74.6070023  81.9010010  33.8359985  74.9400024  81.4000015
  34.9830017  76.7030029  81.9059982  35.2939987  76.8789978  80.8550034
  35.8190002  77.0049973  82.5729980  34.1090012  77.3519974  82.1289978
  33.8359985  77.1859970  97.0950012  34.3390007  78.0979996  97.4810028
  32.9420013  77.0169983  97.7320023  33.3069992  77.4560013  95.6689987
  32.6030006  78.3140030  95.7160034  32.7179985  76.5729980  95.3430023
  34.3530006  77.7559967  94.5830002  35.1030006  76.9380035  94.5439987
  34.8849983  78.7020035  94.8209991  33.6839981  77.8590012  93.2030029
  32.8979988  78.6429977  93.2389984  33.1800003  76.8919983  92.9889984
  34.6440010  78.1699982  92.0479965  35.1360016  79.1490021  92.2289963
  35.4379997  77.3929977  92.0070038  33.9090004  78.2080002  90.6989975
  33.0769997  78.9420013  90.7639999  33.4640007  77.2080002  90.5070038
  34.8079987  78.5849991  89.5149994  35.2799988  79.5719986  89.7099991
  35.6250000  77.8369980  89.4270020  34.0470009  78.6449966  88.1819992
  33.5690002  77.6589966  87.9980011  33.2449989  79.4100037  88.2539978
  34.9630013  78.9759979  86.9970016  35.7360001  78.1809998  86.9280014
  35.4830017  79.9380035  87.1920013  34.2299995  79.0630035  85.6529999
  33.7360001  78.0879974  85.4570007  33.4370003  79.8379974  85.7269974
  35.1529999  79.3990021  84.4800034  34.5800018  79.4400024  83.5299988
  35.6419983  80.3840027  84.6399994  35.9449997  78.6259995  84.3809967
  39.7360001  77.0899963  98.1360016  39.3479996  75.9700012  97.8099976
  40.2369995  78.1080017  97.1159973  39.9669991  79.1240005  97.4759979
  41.3419991  78.0360031  97.0350037  39.5760002  77.8820038  95.7379990
  38.4830017  77.7529984  95.8929977  40.2060013  76.7480011  95.1230011
  39.3940010  75.8939972  94.5029984  38.1809998  76.0110016  94.4000015
  40.1279984  74.5559998  94.3399963  39.3829994  73.7789993  94.0640030
  40.5519981  74.2929993  95.3330002  41.2589989  74.6200027  93.2939987
  41.9729996  73.7969971  93.5139999  41.8170013  75.5759964  93.3840027
  40.7820015  74.4420013  91.8460007  40.1049995  75.2760010  91.5640030
  40.2080002  73.4940033  91.7659988  41.9640007  74.3830032  90.8649979
  42.6619987  73.5879974  91.2030029  42.5130005  75.3489990  90.8970032
  41.5620003  74.0830002  89.4140015  40.9029999  74.8949966  89.0380020
  40.9830017  73.1350021  89.3860016  42.7830009  73.9509964  88.4889984
  43.4459991  73.1480026  88.8759995  43.3499985  74.9059982  88.5169983
  42.4189987  73.6389999  87.0309982  41.7099991  74.4150009  86.6729965
  41.8989983  72.6579971  86.9830017  43.6380005  73.6190033  86.0930023
  44.2779999  72.7409973  86.3219986  44.2350006  74.5350037  86.2919998
  43.2719994  73.6279984  84.5989990  44.1980019  73.7839966  84.0059967
  42.6010017  74.4929962  84.4100037  42.5810013  72.3529968  84.0979996
  43.2550011  71.4869995  84.2689972  41.6609993  72.1890030  84.6989975
  42.1930008  72.4130020  82.6200027  43.0880013  72.5930023  81.9860001
  41.7210007  71.4589996  82.3020020  41.4690018  73.2369995  82.4469986
  39.7789993  79.1289978  94.8410034  40.8680000  79.2689972  94.6699982
  39.4090004  80.0199966  95.3919983  39.0600014  79.0719986  93.4820023
  37.9650002  78.9759979  93.6449966  39.4029999  78.1640015  92.9420013
  39.3450012  80.3040009  92.6090012  40.4440002  80.3769989  92.4599991
  39.0209999  81.2210007  93.1460037  38.6739998  80.2710037  91.2229996
  39.0149994  81.1630020  90.6549988  37.5719986  80.3430023  91.3389969
  39.0050011  79.0080032  90.4130020  40.0940018  78.8040009  90.4970016
  38.4659996  78.1449966  90.8580017  38.6479988  79.1070023  88.9229965
  39.2459984  79.9229965  88.4629974  37.5730019  79.3639984  88.8119965
  38.9290009  77.7949982  88.1770020  38.2309990  77.0159988  88.5490036
  39.9640007  77.4639969  88.4100037  38.7939987  77.9039993  86.6529999
  37.7750015  78.2620010  86.3949966  39.5219994  78.6559982  86.2799988
  39.0509987  76.5680008  85.9440002  40.0709991  76.2139969  86.2060013
  38.3230019  75.8170013  86.3190002  38.9350014  76.6529999  84.4189987
  39.6669998  77.4049988  84.0540009  37.9179993  77.0149994  84.1579971
  39.1930008  75.3199997  83.7170029  40.2150002  74.9520035  83.9509964
  38.4599991  74.5579987  84.0579987  39.0999985  75.4319992  82.6159973
  45.1139984  75.6220016  95.9850006  45.9070015  75.3280029  95.2639999
  45.7540016  76.2959976  97.0640030  45.1759987  76.7669983  97.6689987
  44.1590004  76.5660019  95.2289963  43.3699989  76.9580002  95.9059982
  43.6549988  75.9570007  94.4479980  44.8549995  77.7409973  94.5250015
  45.7369995  77.3590012  93.9670029  45.2229996  78.4599991  95.2880020
  43.9329987  78.4639969  93.5339966  43.0229988  78.8239975  94.0599976
  43.5979996  77.7289963  92.7710037  44.6180000  79.6470032  92.8320007
  45.7050018  79.6320038  93.0609970  44.2080002  80.5940018  93.2429962
  44.4550018  79.6510010  91.3030014  43.3779984  79.6110001  91.0339966
  44.8569984  80.6149979  90.9240036  45.2140007  78.5210037  90.5859985
  44.6720009  77.5609970  90.7210007  46.2169991  78.4160004  91.0520020
  45.4099998  78.8109970  89.0920029  45.9770012  79.7620010  88.9970016
  44.4210014  78.9629974  88.6090012  46.1699982  77.7170029  88.3290024
  47.1030006  77.4589996  88.8740005  45.5330009  76.8069992  88.2850037
  46.5289993  78.1520004  86.9010010  45.6100006  78.5439987  86.4140015
  47.2610016  78.9869995  86.9449997  47.0849991  77.0220032  86.0279999
  48.0139999  76.6259995  86.4919968  46.3390007  76.1989975  86.0090027
  47.3779984  77.4520035  84.5889969  47.7620010  76.5940018  83.9970016
  46.4510002  77.8270035  84.1050034  48.1360016  78.2639999  84.5719986
  40.5699997  71.5709991  98.1320038  39.4780006  72.1200027  98.2900009
  40.7449989  70.3949966  97.1780014  40.0849991  69.5589981  97.4919968
  41.7980003  70.0459976  97.2360001  40.4319992  70.8209991  95.7300034
  40.8849983  71.8160019  95.5299988  39.0200005  70.8830032  95.5419998
  38.7319984  71.2180023  94.6900024  41.0209999  69.8130035  94.7220001
  40.4949989  68.8410034  94.8300018  42.0870018  69.6460037  94.9860001
  40.9669991  70.2740021  93.2549973  41.5070000  71.2399979  93.1579971
  39.9119987  70.4430008  92.9499969  41.6020012  69.2470016  92.3079987
  41.0040016  68.3109970  92.3339996  42.6199989  69.0009995  92.6790009
  41.7239990  69.7249985  90.8529968  42.2379990  68.9290009  90.2730026
  42.3629990  70.6330032  90.8140030  40.3829994  70.0329971  90.1699982
  39.6800003  69.1910019  90.3450012  39.9410019  70.9489975  90.6169968
  40.5499992  70.2350006  88.6579971  40.9650002  69.3030014  88.2170029
  41.2929993  71.0429993  88.4869995  39.2560005  70.6009979  87.9189987
  38.4850006  69.8219986  88.1029968  38.8730011  71.5640030  88.3199997
  39.4930000  70.7409973  86.4089966  40.3079987  71.4810028  86.2559967
  39.8470001  69.7679977  86.0070038  38.2719994  71.2190018  85.6129990
  37.4770012  70.4430008  85.6490021  37.8730011  72.1399994  86.0899963
  38.6010017  71.5439987  84.1460037  37.6910019  71.9649963  83.6689987
  39.3810005  72.3349991  84.1289978  39.0870018  70.3539963  83.3160019
  39.2439995  70.6569977  82.2580032  40.0480003  69.9619980  83.7139969
  38.3339996  69.5370026  83.3379974  36.1669998  77.3190002 106.8850021
  35.1360016  76.9400024 107.5090027  36.4339981  78.5090027 106.5510025
  37.3750000  76.2949982 106.8170013  37.9780006  73.9850006 107.1490021
  38.6160011  74.0500031 106.2419968  36.8950005  74.9339981 107.0039978
  38.3930016  76.6800003 107.9089966  37.8349991  76.8000031 108.8629990
  38.8250008  77.6719971 107.6579971  39.4869995  75.6800003 108.1299973
  40.1040001  75.6350021 107.2070007  40.2910004  76.1110001 109.2419968
  38.8769989  74.3089981 108.3470001  39.7029991  73.5670013 108.3529968
  38.1839981  74.2040024 109.5989990  38.8160019  74.3219986 110.3119965
  37.4099998  72.5680008 107.1949997  36.7480011  72.4830017 108.0830002
  38.4659996  71.5950012 107.3119965  38.0740013  70.7689972 107.0199966
  36.5979996  72.2689972 105.9410019  35.8250008  73.0520020 105.7880020
  37.2669983  72.2919998 105.0540009  35.9519997  70.9820023 106.0230026
  35.0470009  71.1269989 106.3089981  42.1520004  74.5680008 108.7959976
  42.8349991  74.3280029 107.7630005  41.9080009  73.7570038 109.7350006
  41.7019997  76.0589981 109.0500031  41.8120003  78.3150024 108.2080002
  40.7159996  78.3840027 108.3740005  42.1380005  76.9250031 107.9660034
  42.2659988  76.5660019 110.3909988  43.3660011  76.4110031 110.3789978
  41.8590012  75.9469986 111.2190018  41.9819984  78.0110016 110.6449966
  40.8820000  78.1539993 110.7089996  42.5470009  78.3970032 111.8970032
  41.9000015  78.2900009 112.5979996  42.4809990  78.8529968 109.4789963
  42.1320000  79.8949966 109.6409988  43.9119987  78.8809967 109.3649979
  44.2779999  79.3209991 110.1360016  42.1069984  79.1510010 106.9670029
  43.2060013  79.1760025 106.8069992  41.6259995  80.4970016 107.1500015
  41.6269989  80.8779984 106.2689972  41.4469986  78.5540009 105.7289963
  41.7630005  77.4950027 105.6100006  40.3419991  78.5640030 105.8420029
  41.8289986  79.2779999 104.5449982  41.4669991  78.8119965 103.7880020
 101.4499969 117.3700027 104.7259979 100.1869965 118.5820007 105.8700027
 100.3909988 117.7040024 104.7490005  99.7630005 116.7959976 104.8700027
 100.0350037 118.3539963 103.4140015 100.8720016 119.5000000 103.1760025
  98.9789963 118.6910019 103.4889984 100.3799973 120.2539978 102.0589981
  99.2949982 120.4260025 102.2200012 100.9530029 121.5400009 101.8759995
 102.1190033 121.8669968 102.6510010 102.0459976 121.4869995 103.6920013
 102.1370010 122.9739990 102.7399979 100.1610031 117.4049988 102.2119980
 101.2220001 117.0800018 102.1600037  99.2559967 116.3030014 102.3720016
  99.7490005 114.6930008 102.4110031 100.0670013 114.3479996 103.8740005
 100.9810028 114.5080032 101.5080032  98.5400009 113.8949966 101.8960037
  99.8040009 118.1340027 100.9130020 100.0960007 117.2369995  99.8280029
  98.7229996 118.3750000 100.9919968  99.1949997 117.1569977  98.8519974
  98.1549988 117.8050003  98.7890015  99.7600021 116.3809967  97.6819992
 100.8460007 116.5989990  97.5889969  99.2600021 116.7590027  96.7649994
 100.5179977 119.4830017 100.7580032 101.5999985 119.2850037 100.6060028
 100.0279999 120.2819977  99.6309967  99.4309998 121.0469971  99.8600006
 103.4820023 121.6910019 100.4990005 102.7320023 121.0189972 100.0309982
 103.1279984 123.0370026 100.1600037 103.7949982 123.6579971 100.4649963
 103.4469986 121.4629974 102.0090027 104.2220001 122.1230011 102.4540024
 103.8020020 120.1159973 102.3889999 105.0719986 119.6809998 101.8519974
 105.0640030 118.5800018 101.9990005 106.1689987 120.2890015 102.5390015
 106.3489990 118.4909973 104.4039993 108.0039978 118.4550018 102.4710007
 108.1179962 120.3099976 104.2050018 107.2060013 119.3339996 103.4469986
 104.8359985 121.3059998  99.9489975 105.5979996 121.9130020 100.4830017
 104.9459991 121.6650009  98.5569992 104.1549988 120.9990005  97.7089996
 103.8750000 119.8150024  97.7919998 104.0670013 121.7350006  96.3889999
 103.4749985 121.0800018  95.7149963 105.0790024 121.8580017  95.9469986
 105.0830002 119.8580017 100.3339996 104.1719971 119.3069992 100.0159988
 106.2249985 119.2590027  99.6630020 106.8909988 119.8840027  99.2630005
  99.4759979 114.8949966  97.9540024  99.9530029 114.6439972  98.9250031
 100.0189972 114.0540009  96.9250031 101.3259964 114.1299973  96.7229996
 102.1470032 114.5719986  97.5149994 101.6930008 113.2880020  95.4970016
 100.8069992 112.7109985  95.1559982 102.4850006 112.5719986  95.8030014
 102.1979980 114.1800003  94.3440018 103.0699997 114.7829971  94.6760025
 101.3880005 114.8799973  94.0479965 102.5999985 113.3389969  93.1250000
 101.7429962 112.6920013  92.8410034 103.4440002 112.6729965  93.4039993
 103.0080032 114.1559982  91.8899994 103.2949982 113.4280014  91.1019974
 103.9069977 114.7710037  92.1119995 101.9010010 115.0739975  91.3430023
 101.8730011 116.0070038  91.9459991 100.9160004 114.5719986  91.4520035
 102.0780029 115.4339981  89.8570023 103.1070023 115.8190002  89.6880035
 101.3600006 116.2419968  89.6050034 101.8040009 114.2460022  88.9270020
 100.8119965 113.8190002  89.1900024 102.5559998 113.4469986  89.0950012
 101.7900009 114.5859985  87.4339981 102.8229980 114.8600006  87.1299973
 101.1250000 115.4580002  87.2529984 101.3099976 113.3960037  86.5989990
 100.2320023 113.2239990  86.8079987 101.8629990 112.4970016  86.9440002
 101.5240021 113.5329971  85.0920029 102.5899963 113.7580032  84.8779984
 100.9160004 114.3789978  84.7070007 101.1399994 112.2600021  84.3310013
 100.0950012 111.9840012  84.5859985 101.7760010 111.4219971  84.6890030
 101.2839966 112.4029999  82.7500000 100.4570007 113.1080017  82.9840012
 102.3499985 112.3089981  83.0490036 101.8079987 113.5780029  81.8629990
 102.6019974 113.2160034  81.1760025 102.2399979 114.3649979  82.5169983
 100.9909973 114.0309982  81.2610016  97.9609985 114.5599976  98.1009979
  97.4560013 115.3349991  98.7160034  97.8990021 113.6129990  98.6780014
  97.1529999 114.3460007  96.7990036  96.0719986 114.2850037  97.0459976
  97.4499969 113.3659973  96.3679962  97.3659973 115.3929977  95.7040024
  98.4509964 115.4260025  95.4690018  97.0540009 116.4020004  96.0459976
  96.6999969 115.0380020  94.3759995  95.5960007 115.1520004  94.4290009
  96.9260025 113.9720001  94.1549988  97.2620010 115.8820038  93.2310028
  96.6800003 116.8219986  93.1210022  98.3079987 116.1689987  93.4700012
  97.3069992 115.1179962  91.9140015  96.2870026 114.7860031  91.6250000
  97.9309998 114.2089996  92.0559998  97.8919983 115.9430008  90.7750015
  97.2119980 116.8030014  90.5960007  98.8870010 116.3470001  91.0630035
  98.0459976 115.1240005  89.4909973  98.9479980 114.4850006  89.5989990
  97.1699982 114.4499969  89.3730011  98.1579971 115.9990005  88.2480011
  98.5849991 115.4140015  87.4049988  98.8550034 116.8389969  88.4550018
  96.7910004 116.5370026  87.8209991  96.1829987 115.6809998  87.4580002
  96.2580032 116.9520035  88.7030029  96.8529968 117.6110001  86.7500000
  97.2880020 117.2030029  85.8130035  95.8430023 118.0149994  86.5220032
  97.4850006 118.4520035  87.1060028 100.2979965 120.0270004  98.3359985
 101.1019974 119.1660004  97.9919968  99.5070038 120.8389969  97.3209991
  98.4830017 121.0029984  97.7210007  99.9950027 121.8259964  97.1770020
  99.3919983 120.1019974  95.9629974  98.9619980 119.0970001  96.1620026
 100.6869965 120.0500031  95.3249969 100.9359970 118.9209976  94.6439972
 100.1800003 117.9599991  94.5810013 102.4520035 118.7890015  94.3929977
 102.6480026 117.7549973  94.0370026 102.9690018 118.9240036  95.3679962
 102.9950027 119.7939987  93.3570023 104.1019974 119.7939987  93.4459991
 102.6399994 120.8219986  93.5849991 102.6549988 119.4069977  91.9130020
 101.5619965 119.5130005  91.7470016 102.9240036 118.3389969  91.7659988
 103.4329987 120.2269974  90.8690033 104.5199966 120.0739975  91.0400009
 103.2200012 121.3099976  91.0009995 103.1159973 119.8320007  89.4209976
 102.0339966 120.0100021  89.2440033 103.2860031 118.7429962  89.2819977
 103.9260025 120.6050034  88.3669968 104.9520035 120.1809998  88.3069992
 104.0110016 121.6630020  88.6959991 103.2929993 120.5820007  86.9690018
 102.2829971 121.0390015  87.0400009 103.1849976 119.5250015  86.6449966
 104.0839996 121.3089981  85.8769989 105.0110016 120.7259979  85.6940002
 104.3799973 122.3109970  86.2549973 103.3470001 121.5070038  84.5370026
 103.9489975 122.2249985  83.9420013 102.3519974 121.9649963  84.7259979
 103.1689987 120.2310028  83.7009964 104.1529999 119.7190018  83.6309967
 102.4940033 119.5449982  84.2559967 102.6350021 120.4369965  82.2850037
 103.2919998 121.1279984  81.7149963 102.5920029 119.4680023  81.7429962
 101.6100006 120.8639984  82.3000031  98.4049988 120.9029999  95.0759964
  98.8199997 121.9270020  94.9589996  97.4420013 120.9919968  95.6230011
  98.1110001 120.3430023  93.6760025  97.6060028 119.3570023  93.7549973
  99.0749969 120.1900024  93.1439972  97.2419968 121.3109970  92.8610001
  97.7549973 122.2959976  92.8280029  96.2699966 121.4560013  93.3789978
  96.9639969 120.8809967  91.4120026  96.4100037 121.7190018  90.9380035
  96.2949982 119.9929962  91.4010010  98.2239990 120.5859985  90.5859985
  98.9909973 121.3550034  90.8209991  98.6299973 119.5979996  90.8909988
  98.0189972 120.5889969  89.0619965  97.7679977 121.6190033  88.7310028
  97.1669998 119.9329987  88.7819977  99.2710037 120.0979996  88.3290024
  99.3649979 119.0059967  88.5159988 100.1579971 120.5989990  88.7720032
  99.2900009 120.3450012  86.8160019  98.2819977 120.1829987  86.3769989
  99.5510025 121.4120026  86.6470032 100.3140030 119.4629974  86.0839996
 100.7519989 120.0739975  85.2649994 101.1250000 119.2050018  86.7979965
  99.7819977 118.1660004  85.4670029  98.9029999 118.4219971  84.8369980
  99.4280014 117.5090027  86.2900009 100.7740021 117.3750000  84.6240005
 101.1439972 117.9960022  83.7799988 101.6399994 117.0540009  85.2419968
 100.2890015 116.4660034  84.2089996 103.3280029 123.0810013  96.4720001
 104.0220032 123.8740005  96.8249969 102.2229996 123.0110016  97.3659973
 102.4339981 123.1979980  98.2839966 102.8270035 123.4169998  95.0530014
 102.0800018 122.6490021  94.7590027 103.6859970 123.3180008  94.3550034
 102.2070007 124.8000031  94.8280029 102.9869995 125.5759964  94.9869995
 101.3870010 124.9749985  95.5569992 101.6549988 124.8909988  93.3980026
 100.8539963 124.1299973  93.2870026 102.4739990 124.6159973  92.6989975
 101.0930023 126.2600021  92.9889984 101.9110031 127.0120010  93.0039978
 100.3300018 126.5709991  93.7350006 100.4390030 126.2440033  91.5920029
  99.6029968 125.5130005  91.6019974 100.0090027 127.2480011  91.3870010
 101.4010010 125.8830032  90.4440002 101.8830032 124.9049988  90.6520004
 102.2020035 126.6520004  90.4000015 100.7320023 125.7860031  89.0619965
 100.2160034 126.7460022  88.8450012  99.9649963 124.9820023  89.0810013
 101.7440033 125.4950027  87.9420013 102.4950027 126.3140030  87.9240036
 102.2799988 124.5510025  88.1770020 101.1269989 125.3720016  86.5410004
 100.3669968 124.5609970  86.5469971 100.6149979 126.3229980  86.2829971
 102.1760025 125.0619965  85.4629974 102.9250031 125.8830032  85.4530029
 102.7129974 124.1320038  85.7480011 101.6100006 124.8899994  84.0559998
 102.4309998 124.6800003  83.3359985 100.8919983 124.0429993  84.0260010
 101.0889969 125.8150024  83.7300034 106.2210007 117.9459991  99.3639984
 105.5039978 117.1380005  99.9619980 107.0910034 117.5159988  98.1920013
 107.7669983 116.6920013  98.5039978 107.7089996 118.3789978  97.8619995
 106.1539993 117.0869980  97.0449982 105.2829971 117.7750015  97.0039978
 105.6989975 115.7519989  97.2570038 104.9710007 115.4749985  96.6969986
 106.8410034 117.1620026  95.6699982 107.5260010 116.2959976  95.5469971
 107.4660034 118.0800018  95.6340027 105.8519974 117.2239990  94.4919968
 105.3140030 118.1949997  94.5270004 105.0970001 116.4140015  94.5849991
 106.5650024 117.0719986  93.1510010 107.0039978 116.0520020  93.1179962
 107.3949966 117.8089981  93.0940018 105.6880035 117.2649994  91.9150009
 105.5319977 118.3560028  91.7750015 104.6910019 116.7959976  92.0569992
 106.3460007 116.6900024  90.6529999 107.4440002 116.8519974  90.7099991
 106.1669998 115.5940018  90.6090012 105.8450012 117.3430023  89.3679962
 106.1210022 118.4189987  89.3889999 104.7360001 117.2900009  89.3239975
 106.3980026 116.7030029  88.0920029 107.3300018 116.1429977  88.3229980
 105.6429977 115.9769974  87.7210007 106.6930008 117.7519989  87.0169983
 105.9189987 118.5490036  87.0650024 107.6600037 118.2360001  87.2699966
 106.7600021 117.2559967  85.5670013 107.4550018 117.9479980  85.0459976
 107.1890030 116.2330017  85.5059967 105.4240036 117.3590012  84.8170013
 104.9970016 118.3619995  85.0299988 105.6460037 117.3219986  83.7289963
 104.3830032 116.2910004  85.1330032 103.5339966 116.3580017  84.4199982
 103.9950027 116.4189987  86.1669998 104.8369980 115.2809982  85.0520020
  98.3470001 117.3290024 106.9609985  98.0240021 116.4420013 107.8020020
  97.5380020 118.0350037 106.2910004  99.8330002 117.8700027 107.0630035
 102.0830002 117.2249985 107.6129990 102.4179993 117.8280029 106.7419968
 100.7369995 116.7659988 107.3509979  99.8889999 118.9260025 108.1829987
  99.4160004 118.4899979 109.0889969  99.2710037 119.7979965 107.8809967
 101.2730026 119.3690033 108.5469971 101.7050018 119.8899994 107.6660004
 101.1920013 120.2659988 109.6669998 102.1429977 118.1569977 108.8280029
 103.1930008 118.5090027 108.9189987 101.7959976 117.4950027 110.0510025
 101.9889984 118.0820007 110.7850037 103.0390015 116.0370026 107.7119980
 102.7310028 115.4020004 108.5699997 104.3899994 116.4879990 107.9270020
 104.9420013 115.7760010 107.5950012 102.9980011 115.2009964 106.4369965
 101.9550018 114.8840027 106.2220001 103.3349991 115.8209991 105.5790024
 103.8330002 114.0299988 106.5410004 103.2740021 113.2969971 106.8099976
 103.4739990 121.1149979 109.3759995 104.0680008 121.5339966 108.3450012
 104.0019989 120.5220032 110.3600006 101.9449997 121.4680023 109.5360031
 100.0999985 122.6930008 108.5859985  99.4820023 121.7789993 108.7139969
 101.4779968 122.2839966 108.4260025 101.7080002 122.1999969 110.8710022
 102.3970032 123.0699997 110.9079971 101.9850006 121.5279999 111.7119980
 100.3050003 122.6800003 111.0429993  99.6250000 121.8020020 111.0690002
 100.1859970 123.3629990 112.2910004  99.9820023 122.7369995 112.9899979
  99.8929977 123.5370026 109.8519974  98.8089981 123.7539978 109.9550018
 100.5879974 124.7919998 109.7880020 100.4390030 125.2679977 110.6090012
  99.6060028 123.3659973 107.3089981 100.1819992 124.3040009 107.1549988
  98.2060013 123.6869965 107.4229965  97.9209976 123.8610001 106.5230026
  99.8050003 122.4660034 106.0920029 100.8710022 122.1650009 106.0169983
  99.2009964 121.5400009 106.1999969  99.4349976 123.1520004 104.8799973
  99.6589966 122.5800018 104.1419983 103.3150024  34.1959991 104.3880005
 101.6949997  33.8339996 105.6669998 102.4520035  33.5040016 104.4889984
 102.8610001  32.4739990 104.5749969 101.5830002  33.5789986 103.2289963
 101.0989990  34.9210014 103.0439987 100.7089996  32.9169998 103.4049988
 100.1159973  34.9420013 101.9980011  99.4369965  34.0740013 102.1380005
  99.2669983  36.0830002 101.9479980  99.6729965  37.2430000 102.6900024
 100.2050018  36.9720001 103.6269989  98.7429962  37.7560005 103.0169983
 102.3119965  33.1170006 101.9520035 103.2600021  33.6949997 101.9140015
 102.5419998  31.7089996 102.1070023 104.0100021  30.9510002 101.8730011
 103.9449997  29.6669998 102.7080002 105.1299973  31.8770008 102.3659973
 104.1259995  30.6240005 100.3820038 101.5279999  33.4099998 100.6620026
 102.4459991  33.2999992  99.5599976 100.7249985  32.6430016 100.6240005
 102.0220032  32.6870003  98.4540024 100.9039993  32.2080002  98.3040009
 102.9260025  33.0530014  97.2860031 103.4069977  34.0330009  97.4909973
 102.3010025  33.1440010  96.3720016 100.8030014  34.7630005 100.6620026
 101.5670013  35.5639992 100.5650024  99.8410034  34.9129982  99.5729980
  98.8919983  34.7159996  99.8040009  99.8310013  38.6599998 100.5530014
  99.7730026  37.7439995  99.9280014  98.4950027  39.1559982 100.7269974
  98.4909973  39.9889984 101.2040024 100.4840012  38.2550011 101.8830032
 100.5429993  39.1699982 102.5100021 101.8359985  37.7709999 101.7180023
 102.6949997  38.6590004 100.9720001 103.5889969  38.0429993 100.7360001
 103.0350037  39.7910004 101.7659988 105.2710037  38.9039993 102.7030029
 105.2839966  40.6520004 100.8539963 104.5049973  41.2779999 103.1740036
 104.6060028  40.1580009 102.1320038 100.7289963  39.6720009  99.8610001
 100.9049988  40.4860001 100.5970001 100.2139969  40.3590012  98.7170029
  99.7020035  39.6720009  97.7030029  99.7440033  38.4620018  97.5709991
  99.4319992  40.6640015  96.5739975 100.1930008  40.5070000  95.7809982
  99.5500031  41.6980019  96.9639969 102.0690002  39.0060005  99.6190033
 101.8450012  38.0410004  99.1149979 102.9580002  39.7379990  98.7320023
 102.7860031  40.7130013  98.6139984 103.9489975  31.9260006  97.1100006
 104.4240036  31.7269993  98.0940018 104.9540024  32.3059998  96.1620026
 105.7929993  33.2599983  96.5350037 105.9059982  33.7060013  97.6679993
 106.8430023  33.4440002  95.4359970 107.2440033  32.4420013  95.1740036
 107.6719971  34.0559998  95.8519974 106.2649994  34.1220016  94.1750031
 105.9599991  35.1650009  94.4059982 105.3590012  33.5680008  93.8479996
 107.2750015  34.1310005  93.0179977 107.5550003  33.0800018  92.7900009
 108.1969986  34.6609993  93.3389969 106.7490005  34.7849998  91.7279968
 107.5179977  34.6459999  90.9380035 106.6279984  35.8790016  91.8860016
 105.4110031  34.2099991  91.2389984 104.5930023  34.6469994  91.8509979
 105.3939972  33.1119995  91.4089966 105.1200027  34.4669991  89.7519989
 105.2850037  35.5379982  89.5080032 104.0449982  34.2480011  89.5790024
 105.9449997  33.5699997  88.8130035 105.9160004  32.5330009  89.2109985
 107.0039978  33.9059982  88.8170013 105.4179993  33.5330009  87.3730011
 105.4720001  34.5509987  86.9319992 104.3479996  33.2340012  87.3850021
 106.1940002  32.5649986  86.4700012 106.1380005  31.5400009  86.8949966
 107.2610016  32.8750000  86.4540024 105.6589966  32.5509987  85.0319977
 105.6370010  33.5960007  84.6549988 104.6129990  32.1769981  85.0270004
 106.5270004  31.7280006  84.0709991 106.4830017  30.6599998  84.3720016
 107.5739975  32.0870018  84.1719971 106.1009979  31.8729992  82.6019974
 105.9899979  32.9550018  82.3750000 106.9039993  31.4839993  81.9390030
 104.7949982  31.1509991  82.2740021 104.5220032  31.2940006  81.2060013
 103.9749985  31.5610008  82.9020004 104.8809967  30.0629997  82.4820023
 103.2910004  30.5990009  96.6340027 102.2109985  30.5879993  96.8960037
 103.7740021  29.7849998  97.2149963 103.4479980  30.2350006  95.1399994
 103.0329971  29.2159996  94.9840012 104.5339966  30.1809998  94.9089966
 102.7819977  31.1800003  94.1230011 103.0940018  32.2290001  94.3170013
 101.6780014  31.1270008  94.2259979 103.1969986  30.8050003  92.6910019
 102.9440002  29.7369995  92.5189972 104.3010025  30.9039993  92.6119995
 102.5579987  31.6410007  91.5699997 101.4560013  31.5060005  91.6009979
 102.7779999  32.7179985  91.7279968 103.0869980  31.2129993  90.1910019
 103.0250015  30.1060009  90.1309967 104.1620026  31.4820004  90.1100006
 102.3290024  31.8020000  88.9919968 101.2389984  31.7859993  89.2109985
 102.6350021  32.8590012  88.8389969 102.5589981  30.9969997  87.7070007
 103.6500015  30.8840008  87.5299988 102.1159973  29.9950008  87.8919983
 101.8949966  31.5060005  86.4250031 102.3470001  32.4840012  86.1569977
 100.8079987  31.6569996  86.6009979 102.0780029  30.5459995  85.2429962
 103.1669998  30.3889999  85.0879974 101.6289978  29.5639992  85.5039978
 101.4580002  31.0550003  83.9440002 101.6740036  30.3610001  83.1029968
 100.3560028  31.1499996  84.0469971 101.8690033  32.0559998  83.6930008
 100.1370010  35.2919998  98.3190002 101.2649994  35.6430016  97.9769974
  98.9789963  35.2109985  97.3410034  98.2529984  34.4609985  97.7220001
  98.4670029  36.1949997  97.2760010  99.4820023  34.7599983  95.9580002
 100.2750015  33.9939995  96.0899963  99.9270020  35.9280014  95.2490005
 101.0130005  35.7859993  94.4889984 101.6709976  34.7610016  94.3789978
 101.5800018  37.1839981  94.1839981 102.6299973  37.0690002  93.8379974
 101.5930023  37.7459984  95.1429977 100.7509995  37.9679985  93.1429977
 100.9639969  39.0470009  93.2990036  99.6650009  37.8139992  93.3150024
 101.0849991  37.6489983  91.6780014 100.7070007  36.6370010  91.4189987
 102.1880035  37.6450005  91.5439987 100.4909973  38.6910019  90.7089996
 100.9179993  39.6860008  90.9580002  99.3919983  38.7430000  90.8600006
 100.7720032  38.3950005  89.2279968 100.2470016  37.4550018  88.9530029
 101.8610001  38.2220001  89.0889969 100.3259964  39.5110016  88.2639999
 100.9520035  40.4109993  88.4420013  99.2689972  39.7770004  88.4810028
 100.4359970  39.0909996  86.7880020  99.7389984  38.2410011  86.6250000
 101.4639969  38.7220001  86.5889969 100.0770035  40.1769981  85.7590027
 100.7880020  41.0270004  85.8330002  99.0609970  40.5589981  85.9940033
 100.0660019  39.6489983  84.3099976  99.5380020  40.3779984  83.6589966
  99.4919968  38.6969986  84.2860031 101.4599991  39.4039993  83.7170029
 101.9489975  40.3899994  83.5619965 102.0729980  38.8520012  84.4619980
 101.4810028  38.6180000  82.4049988 100.8450012  39.1059990  81.6350021
 102.5179977  38.5390015  82.0159988 101.0930023  37.5900002  82.5699997
  98.3099976  34.0979996  95.1959991  97.5360031  34.8699989  94.9980011
  97.8539963  33.3209991  95.8460007  98.7139969  33.4350014  93.8759995
  99.4520035  32.6240005  94.0609970  99.2249985  34.2089996  93.2639999
  97.5120010  32.8790016  93.0999985  96.6959991  33.6329994  93.1119995
  97.1389999  31.9640007  93.6080017  97.8330002  32.5629997  91.6340027
  97.0029984  31.9759998  91.1849976  98.7500000  31.9370003  91.5989990
  98.0510025  33.8279991  90.7919998  97.0979996  34.3880005  90.6729965
  98.7649994  34.4970016  91.3180008  98.6600037  33.5279999  89.4250031
  97.8710022  33.2060013  88.7119980  99.3720016  32.6829987  89.5390015
  99.4380035  34.7179985  88.8600006 100.1849976  35.0559998  89.6100006
  98.7379990  35.5610008  88.6800003 100.1800003  34.3600006  87.5729980
 100.8600006  33.5089989  87.7919998  99.4509964  34.0139999  86.8089981
 101.0139999  35.5029984  86.9960022 100.3030014  36.2659988  86.6119995
 101.6289978  35.9690018  87.7959976 101.9260025  35.0629997  85.8479996
 101.3639984  34.3359985  85.2229996 102.8089981  34.5400009  86.2740021
 102.3870010  36.1990013  84.9530029 103.0059967  36.9259987  85.5210037
 102.9850006  35.8139992  84.0989990 101.4990005  36.7309990  84.5510025
  98.0169983  40.5299988  95.9749985  97.8109970  41.4749985  95.4280014
  97.0339966  40.4150009  96.9990005  96.8880005  39.5279999  97.3339996
  97.8799973  39.3899994  94.9420013  98.1090012  38.4080009  95.4069977
  98.6429977  39.5789986  94.1559982  96.5059967  39.3300018  94.2500000
  96.1979980  40.3600006  93.9690018  95.7539978  38.9430008  94.9700012
  96.4879990  38.4679985  92.9739990  96.8820038  37.4550018  93.2040024
  97.1660004  38.9269981  92.2229996  95.0729980  38.3540001  92.3820038
  94.6360016  39.3720016  92.3020020  94.4509964  37.7809982  93.1019974
  94.9720001  37.6720009  91.0049973  95.5110016  36.7010002  91.0120010
  93.8980026  37.4469986  90.8290024  95.4599991  38.5340004  89.8239975
  96.5690002  38.4990005  89.7829971  95.1579971  39.5890007  89.9940033
  94.8720016  38.0769997  88.4759979  93.7669983  38.1899986  88.5120010
  95.0889969  36.9970016  88.3249969  95.4039993  38.8390007  87.2519989
  95.3349991  39.9360008  87.4110031  96.4759979  38.5779991  87.1200027
  94.6510010  38.4630013  85.9660034  94.5149994  37.3600006  85.9619980
  93.6409988  38.9259987  85.9700012  95.3820038  38.8129997  84.6660004
  95.5049973  39.9160004  84.6129990  96.3970032  38.3629990  84.7030029
  94.6780014  38.3120003  83.4089966  95.2490005  38.5989990  82.5000000
  94.5970001  37.2050018  83.4459991  93.6579971  38.7459984  83.3359985
 103.9889984  39.1409988  98.1050034 104.2480011  37.9459991  98.2659988
 104.8000031  40.0120010  97.1549988 105.8079987  40.1969986  97.5830002
 104.2789993  40.9860001  97.0400009 104.8899994  39.3160019  95.7850037
 103.9509964  38.7550011  95.5849991 105.9970016  38.4169998  95.7779999
 106.0589981  37.8470001  95.0080032 105.0579987  40.3359985  94.6429977
 106.0670013  40.7999992  94.6859970 104.3109970  41.1450005  94.7919998
 104.8109970  39.7260017  93.2549973 103.8339996  39.1959991  93.2659988
 105.5999985  38.9749985  93.0339966 104.7770004  40.7739983  92.1380005
 105.7779999  41.2480011  92.0500031 104.0469971  41.5649986  92.4130020
 104.3720016  40.1889992  90.7789993 104.1529999  41.0209999  90.0759964
 103.4369965  39.6020012  90.9029999 105.4489975  39.2989998  90.1419983
 106.3209991  39.9360008  89.8809967 105.7959976  38.5330009  90.8690033
 104.9400024  38.5880013  88.8850021 104.3870010  39.3269997  88.2659988
 104.2190018  37.7939987  89.1750031 106.0479965  37.9850006  88.0149994
 106.7740021  38.7869987  87.7600021 106.5879974  37.1920013  88.5749969
 105.4720001  37.4109993  86.7180023 104.8180008  36.5470009  86.9609985
 104.8229980  38.1839981  86.2539978 106.5169983  36.9980011  85.6780014
 107.1549988  37.8769989  85.4420013 107.1640015  36.1969986  86.0940018
 105.8580017  36.5079994  84.3850021 105.2330017  35.6220016  84.6279984
 105.1610031  37.2960014  84.0289993 106.8339996  36.1599998  83.2659988
 106.2819977  35.8199997  82.3629990 107.4339981  37.0530014  82.9919968
 107.5250015  35.3510017  83.5859985 102.3679962  31.8509998 106.9950027
 103.3710022  31.3470001 107.5749969 101.2870026  31.2530003 106.7300034
 102.3270035  33.4309998 106.8860016 103.6650009  35.4259987 107.1129990
 103.2180023  35.8180008 106.1740036 103.6669998  33.9809990 107.0350037
 101.3980026  33.9739990 107.9860001 101.7279968  33.5499992 108.9580002
 100.3700027  33.5960007 107.7990036 101.3870010  35.4679985 108.0889969
 101.0059967  35.8750000 107.1269989 100.5260010  35.8650017 109.1699982
 102.8089981  35.9580002 108.2699966 102.7979965  37.0670013 108.1930008
 103.3450012  35.6119995 109.5550003 102.8190002  36.0400009 110.2340012
 105.1070023  35.9290009 107.1679993 105.5699997  35.5639992 108.1100006
 105.1460037  37.3689995 107.1600037 106.0479965  37.5909996 106.9209976
 105.9209976  35.4070015 105.9899979 105.8369980  34.3009987 105.9179993
 105.5149994  35.8289986 105.0459976 107.3140030  35.7599983 106.1119995
 107.7570038  35.0569992 106.5930023 100.2389984  38.1599998 108.3349991
  99.8249969  38.6650009 107.2559967 101.0329971  38.7019997 109.1549988
  99.5380020  36.8370018 108.8369980  97.8659973  35.1800003 108.3229980
  98.6100006  34.4199982 108.6429977  98.5970001  36.3349991 107.8470001
  98.8170013  37.0979996 110.1750031  98.1510010  37.9770012 110.0350037
  99.5660019  37.3779984 110.9469986  97.9980011  35.9440002 110.6539993
  98.6719971  35.0859985 110.8610001  97.3470001  36.2949982 111.8740005
  97.9039993  36.0670013 112.6220016  97.0279999  35.5029984 109.5650024
  96.5370026  34.5680008 109.9100037  95.9980011  36.4640007 109.2870026
  95.4479980  36.5680008 110.0670013  97.0690002  34.5320015 107.1949997
  96.2389984  35.2109985 106.9010010  96.5230026  33.2779999 107.6480026
  96.3109970  32.7980003 106.8440018  97.9560013  34.2760010 105.9789963
  98.4010010  35.2299995 105.6220016  98.7969971  33.6119995 106.2699966
  97.2330017  33.6660004 104.8919983  96.6429977  34.3240013 104.5179977
  73.8580017  50.6090012 104.3639984  72.4440002  49.7280006 105.6350021
  73.3330002  49.6389999 104.5029984  74.1179962  48.8750000 104.6829987
  72.5930023  49.2770004 103.2180023  71.7570038  50.3790016 102.8489990
  71.9570007  48.3930016 103.4400024  70.8730011  50.0050011 101.7870026
  70.3769989  49.0449982 102.0439987  69.8479996  50.9389992 101.4929962
  69.6719971  52.0289993 102.4150009  70.1259995  51.8429985 103.4120026
  68.5830002  52.1520004 102.5940018  73.5169983  48.9440002 102.0360031
  74.2040024  49.8079987 101.9120026  74.2099991  47.7410011 102.3809967
  75.8629990  47.5610008 102.3889999  76.1389999  46.6049995 103.5589981
  76.5240021  48.9239998 102.6210022  76.2610016  46.9300003 101.0520020
  72.7460022  48.7500000 100.7269974  73.7040024  48.7270012  99.6549988
  72.2060013  47.7849998 100.8320007  73.4690018  47.8979988  98.6399994
  72.5339966  47.1090012  98.5729980  74.2470016  48.3499985  97.4199982
  74.2519989  49.4599991  97.3889999  73.7160034  47.9790001  96.5169983
  71.6740036  49.8230019 100.5080032  72.1999969  50.7859993 100.3330002
  70.8000031  49.5620003  99.3600006  69.9540024  49.0699997  99.5490036
  69.6139984  53.5579987 100.4049988  69.9010010  52.6829987  99.7839966
  68.1819992  53.6199989 100.4309998  67.8720016  54.4080009 100.8840027
  70.1989975  53.3230019 101.8000031  69.8690033  54.1590004 102.4540024
  71.6470032  53.3199997 101.8150024  72.2600021  54.4510002 101.1539993
  73.3219986  54.1500015 101.0270004  72.1460037  55.6150017 101.9700012
  74.5479965  55.5270004 102.9369965  73.9680023  57.2560005 101.1660004
  73.0080032  57.4599991 103.4960022  73.4889984  56.4970016 102.4059982
  70.2239990  54.7980003  99.7929993  70.0410004  55.6320000 100.5039978
  69.6169968  55.2220001  98.5670013  69.5800018  54.3590012  97.5550003
  70.2500000  53.3470001  97.4520035  68.7220001  54.9580002  96.4530029
  69.3799973  55.2540016  95.6080017  68.2040024  55.8629990  96.8349991
  71.7210007  54.5880013  99.7300034  71.8740005  53.5929985  99.2610016
  72.4160004  55.5690002  98.9150009  72.0120010  56.4790001  98.8649979
  75.6630020  47.7719994  97.5100021  76.0749969  48.0190010  98.5120010
  76.4940033  48.3390007  96.4899979  76.7610016  49.6310005  96.6100006
  76.5759964  50.3129997  97.6080017  77.4469986  50.1360016  95.3379974
  78.3789978  49.5489998  95.1920013  77.7220001  51.2000008  95.5019989
  76.5350037  50.0079994  94.0970001  75.5960007  50.5800018  94.2500000
  76.2580032  48.9399986  93.9649963  77.2180023  50.5050011  92.8150024
  78.2060013  50.0060005  92.7269974  77.3990021  51.5979996  92.9020004
  76.4319992  50.2200012  91.5199966  76.9919968  50.6899986  90.6839981
  75.4349976  50.7080002  91.5699997  76.2630005  48.7159996  91.2259979
  75.4919968  48.3050003  91.9120026  77.2229996  48.2060013  91.4570007
  75.8830032  48.3559990  89.7799988  74.9749985  48.9150009  89.4700012
  75.6220016  47.2760010  89.7519989  77.0000000  48.6030006  88.7539978
  77.9380035  48.1030006  89.0770035  77.1890030  49.6969986  88.7170029
  76.6119995  48.1189995  87.3529968  75.6220016  48.5550003  87.0999985
  76.5070038  47.0130005  87.3509979  77.6070023  48.5250015  86.2590027
  78.5820007  48.0219994  86.4359970  77.7659988  49.6230011  86.3190002
  77.0979996  48.1669998  84.8550034  76.9560013  47.0660019  84.8040009
  76.0999985  48.6370010  84.7190018  77.9860001  48.5970001  83.6809998
  77.5319977  48.2210007  82.7389984  78.9779968  48.1080017  83.7839966
  78.2379990  50.1030006  83.5159988  78.4479980  50.5760002  84.4990005
  79.1529999  50.2130013  82.8939972  77.1179962  50.8590012  82.8119965
  77.4739990  51.8470001  82.4489975  76.2689972  51.0340004  83.5059967
  76.7409973  50.2630005  81.9530029  75.6959991  46.2220001  97.3789978
  74.8270035  45.7830009  97.9150009  76.6100006  45.8870010  97.9130020
  75.7809982  45.6180000  95.9550018  75.8690033  44.5149994  96.0599976
  76.7170029  45.9720001  95.4720001  74.6070023  45.9150009  95.0080032
  74.5609970  47.0099983  94.8239975  73.6500015  45.5989990  95.4759979
  74.7760010  45.2239990  93.6449966  74.7730026  44.1209984  93.7789993
  75.7689972  45.5120010  93.2389984  73.7139969  45.6129990  92.6019974
  72.7099991  45.2630005  92.9260025  73.6809998  46.7210007  92.5319977
  74.0400009  45.0439987  91.2119980  74.0270004  43.9339981  91.2549973
  75.0709991  45.3610001  90.9469986  73.1019974  45.5130005  90.0899963
  72.0830002  45.1020012  90.2559967  73.0270004  46.6209984  90.1190033
  73.6070023  45.0999985  88.6979980  74.6250000  45.5229988  88.5530014
  73.6890030  43.9939995  88.6500015  72.7109985  45.5839996  87.5500031
  72.5630035  46.6819992  87.6350021  71.7139969  45.1049995  87.6529999
  73.2669983  45.2560005  86.1589966  74.2310028  45.7900009  86.0199966
  73.4789963  44.1669998  86.1129990  72.3249969  45.6110001  85.0159988
  72.7549973  45.2919998  84.0429993  71.3359985  45.1220016  85.1500015
  72.1579971  46.7089996  84.9850006  71.0530014  49.9550018  98.0960007
  72.0550003  50.6030006  97.8000031  70.0159988  49.5330009  97.0609970
  69.4940033  48.6259995  97.4359970  69.2710037  50.3479996  96.9390030
  70.6640015  49.1949997  95.6979980  71.5080032  48.4959984  95.8799973
  71.0719986  50.4210014  95.0709991  72.1709976  50.3450012  94.3229980
  72.8970032  49.3639984  94.2279968  72.6600037  51.7709999  94.0149994
  73.6279984  51.6930008  93.4759979  72.8389969  52.2760010  94.9879990
  71.6529999  52.5890007  93.1829987  71.9300003  53.6609993  93.2730026
  70.6269989  52.4790001  93.5940018  71.6460037  52.2410011  91.6880035
  71.3430023  51.1819992  91.5449982  72.6750031  52.3600006  91.2870026
  70.6959991  53.1599998  90.9029999  70.9000015  54.2089996  91.2070007
  69.6470032  52.9249992  91.1809998  70.8470001  53.0870018  89.3759995
  70.5950012  52.0660019  89.0179977  71.9049988  53.2929993  89.1090012
  69.9530029  54.1139984  88.6630020  70.1529999  55.1180000  89.0930023
  68.8889999  53.8629990  88.8659973  70.1679993  54.1819992  87.1439972
  69.9759979  53.1790009  86.7070007  71.2289963  54.4449997  86.9449997
  69.2500000  55.2070007  86.4589996  69.3629990  56.1940002  86.9560013
  68.1989975  54.8779984  86.6050034  69.4840012  55.3860016  84.9499969
  68.6569977  56.0009995  84.5339966  69.4339981  54.3950005  84.4499969
  70.8059998  56.0639992  84.5859985  70.9440002  56.9720001  85.2109985
  71.6250000  55.3559990  84.8359985  70.9110031  56.4449997  83.1119995
  70.1399994  57.2000008  82.8499985  71.9160004  56.8639984  82.8870010
  70.7509995  55.5480003  82.4759979  69.6149979  48.4799995  94.8059998
  68.7480011  49.1619987  94.6780014  69.2529984  47.5849991  95.3560028
  70.0830002  48.0219994  93.4130020  70.9459991  47.3320007  93.5220032
  70.4179993  48.9020004  92.8239975  68.9599991  47.3120003  92.6449966
  68.1179962  48.0200005  92.4860001  68.5770035  46.4830017  93.2779999
  69.3690033  46.7029991  91.2959976  68.5100021  46.0900002  90.9499969
  70.2300034  46.0159988  91.4390030  69.7089996  47.6870003  90.1679993
  69.0619965  48.5859985  90.2509995  70.7659988  48.0159988  90.2669983
  69.4700012  47.0509987  88.7890015  68.4059982  46.7369995  88.7350006
  70.0920029  46.1349983  88.6989975  69.7669983  47.9749985  87.6019974
  70.8619995  48.1570015  87.5550003  69.2620010  48.9510002  87.7630005
  69.3119965  47.3989983  86.2529984  69.7880020  46.4049988  86.1139984
  68.2109985  47.2449989  86.2669983  69.6959991  48.3019981  85.0749969
  69.2300034  49.3030014  85.2040024  70.7990036  48.4339981  85.1110001
  69.3359985  47.7529984  83.6910019  68.2529984  47.5089989  83.6740036
  69.8970032  46.8059998  83.5390015  69.6480026  48.7130013  82.5449982
  68.9879990  49.6049995  82.6029968  70.6969986  49.0740013  82.6060028
  69.4909973  48.2270012  81.5579987  67.6650009  53.9510002  95.9700012
  66.9479980  54.5330009  95.3519974  66.9260025  53.4160004  97.0630035
  67.3450012  52.6959991  97.5410004  68.2099991  52.8359985  95.0500031
  69.0059967  52.2480011  95.5550003  68.6760025  53.3510017  94.1829987
  67.1380005  51.8769989  94.5070038  66.1709976  52.4230003  94.4639969
  67.0019989  51.0250015  95.2060013  67.4420013  51.3590012  93.0920029
  68.3460007  50.7130013  93.1060028  67.6610031  52.2309990  92.4390030
  66.2549973  50.5909996  92.4940033  65.3690033  51.2599983  92.5230026
  66.0390015  49.7120018  93.1380005  66.4430008  50.1040001  91.0459976
  67.3040009  49.4039993  91.0080032  65.5350037  49.5340004  90.7549973
  66.6620026  51.2179985  90.0100021  67.6389999  51.7099991  90.2080002
  65.8639984  51.9809990  90.1299973  66.6389999  50.7050018  88.5599976
  65.6179962  50.3289986  88.3339996  67.3489990  49.8549995  88.4690018
  67.0159988  51.7700005  87.5199966  66.3519974  52.6520004  87.6429977
  68.0579987  52.1049995  87.7070007  66.8980026  51.3019981  86.0619965
  67.5490036  50.4140015  85.9150009  65.8470001  51.0019989  85.8629990
  67.2990036  52.3969994  85.0660019  66.6309967  53.2700005  85.2259979
  68.3339996  52.7210007  85.3059998  67.2460022  51.9990005  83.5960007
  67.5019989  52.8670006  82.9520035  67.9840012  51.1930008  83.3960037
  66.2350006  51.6320000  83.3199997  73.5230026  55.2739983  98.2119980
  74.1070023  54.1949997  98.3359985  74.0090027  56.3440018  97.2419968
  75.0110016  56.7039986  97.5579987  73.3020020  57.2000008  97.2839966
  74.0429993  55.7890015  95.8030014  73.1760025  55.1129990  95.6429977
  75.2580032  55.0740013  95.5950012  75.3150024  54.5950012  94.7649994
  73.9479980  56.9280014  94.7639999  74.8550034  57.5660019  94.8219986
  73.0780029  57.5610008  95.0419998  73.7350006  56.4529991  93.3150024
  72.9049988  55.7130013  93.3030014  74.6480026  55.9430008  92.9420013
  73.3649979  57.6059990  92.3700027  74.2180023  58.3120003  92.2779999
  72.5189972  58.1609993  92.8290024  72.9160004  57.1419983  90.9759979
  72.3720016  57.9790001  90.4879990  72.1989975  56.2999992  91.0820007
  74.0619965  56.7200012  90.0410004  74.7549973  57.5779991  89.9089966
  74.6309967  55.8829994  90.5009995  73.5289993  56.2809982  88.6699982
  72.8929977  57.0950012  88.2600021  72.8759995  55.3930016  88.8109970
  74.6009979  55.9389992  87.6240005  75.2399979  56.8300018  87.4430008
  75.2450027  55.1180000  88.0070038  73.9499969  55.4980011  86.3059998
  73.3280029  54.5999985  86.5120010  73.2669983  56.3030014  85.9589996
  74.9059982  55.1500015  85.1600037  75.4759979  56.0620003  84.8779984
  75.6250000  54.3740005  85.5000000  74.1510010  54.6259995  83.9280014
  73.5179977  53.7709999  84.2500000  73.4660034  55.4290009  83.5820007
  75.0139999  54.1839981  82.7509995  74.3850021  53.7360001  81.9509964
  75.5479965  55.0579987  82.3199997  75.7630005  53.4319992  83.0780029
  73.4359970  47.8670006 106.8730011  74.6090012  47.5260010 107.1969986
  72.4639969  47.0859985 106.6669998  73.0930023  49.4109993 106.8700027
  73.9810028  51.6139984 107.2200012  73.3949966  51.9379997 106.3339996
  74.2900009  50.2089996 107.0719986  72.0619965  49.6850014 107.9850006
  72.4440002  49.2080002 108.9130020  71.1080017  49.1759987 107.7269974
  71.7990036  51.1310005 108.2860031  71.2630005  51.5670013 107.4150009
  70.9840012  51.2140007 109.4680023  73.1110001  51.8730011 108.4530029
  72.8820038  52.9599991 108.4779968  73.7829971  51.5379982 109.6750031
  73.2080002  51.7620010 110.4100037  75.2710037  52.4280014 107.2190018
  75.8820038  52.1279984 108.0970001  74.9850006  53.8370018 107.3099976
  75.7649994  54.2719994 106.9589996  76.0699997  52.1669998 105.9479980
  76.2379990  51.0779991 105.8130035  75.4879990  52.5200005 105.0699997
  77.3460007  52.8390007 105.9779968  77.9830017  52.2449989 106.3820038
  70.2919998  53.5320015 109.0250015  69.8369980  54.0379982 107.9629974
  71.0090027  54.1170006 109.8860016  69.8440018  52.0639992 109.3909988
  68.3710022  50.2459984 108.8000031  69.2470016  49.5649986 108.8629990
  68.8570023  51.5629997 108.4479980  69.2689972  52.0169983 110.8209991
  68.4540024  52.7690010 110.8850021  70.0550003  52.3269997 111.5419998
  68.7310028  50.6780014 111.2030029  69.5599976  49.9379997 111.1890030
  68.2149963  50.7330017 112.5319977  68.8840027  50.4490013 113.1600037
  67.6989975  50.2190018 110.1809998  67.4359970  49.1679993 110.4240036
  66.4889984  50.9910011 110.2160034  66.1500015  50.9809990 111.1139984
  67.4860001  49.6959991 107.6829987  66.5859985  50.3419991 107.6060028
  67.0810013  48.3460007 107.9940033  66.1429977  48.2910004 107.7979965
  68.2190018  49.7130013 106.3430023  68.6110001  50.7350006 106.1520004
  69.0899963  49.0239983 106.3779984  67.3499985  49.3479996 105.2509995
  67.7040024  49.7470016 104.4520035  74.6250000  33.4550018 104.5879974
  72.9300003  33.7019997 105.7959976  73.5749969  33.0979996 104.6569977
  73.6190033  31.9950008 104.7850037  72.8639984  33.4029999 103.3379974
  72.9589996  34.8040009 103.0479965  71.7939987  33.1349983 103.4739990
  72.0979996  35.1389999 101.9530029  71.1019974  34.6790009 102.1299973
  71.8580017  36.5239983 101.7519989  72.5889969  37.4510002 102.5719986
  72.9130020  37.0110016 103.5390015  71.8939972  38.2760010 102.8369980
  73.4280014  32.6129990 102.1429977  74.5199966  32.8160019 102.1220016
  73.1409988  31.2320004 102.3949966  74.2300034  29.9829998 102.2030029
  73.7220001  28.8560009 103.1100006  75.6179962  30.4680004 102.6419983
  74.1890030  29.5590000 100.7310028  72.8339996  33.0579987 100.7990036
  73.6650009  32.5439987  99.7419968  71.8030014  32.6450005 100.7799988
  73.0660019  31.9249992  98.7170029  71.8519974  31.8040009  98.5930023
  74.0009995  31.9239998  97.5149994  74.7050018  32.7799988  97.6019974
  73.3850021  32.0629997  96.6009979  72.6610031  34.5750008 100.6630020
  73.6660004  35.0299988 100.5309982  71.8249969  34.9469986  99.5220032
  70.8560028  35.0890007  99.7129974  73.4150009  38.5610008 100.4260025
  73.1250000  37.6730003  99.8259964  72.2979965  39.4620018 100.4280014
  72.5139999  40.3030014 100.8369980  73.7750015  38.0690002 101.8330002
  74.0970001  38.9459991 102.4339981  74.8899994  37.1469994 101.8109970
  76.0699997  37.6599998 101.1500015  76.7600021  36.7989998 101.0220032
  76.6770020  38.7089996 101.8909988  77.6559982  38.7400017 104.2419968
  78.6490021  37.1430016 102.5500031  79.0039978  39.6339989 102.3130035
  78.0510025  38.5330009 102.7839966  74.6539993  39.1829987  99.8130035
  75.0080032  39.9480019 100.5370026  74.4589996  39.9239998  98.6070023
  73.9209976  39.3079987  97.5630035  73.7839966  38.1030006  97.4390030
  73.8580017  40.3160019  96.4260025  74.5520020  39.9840012  95.6240005
  74.1839981  41.3149986  96.7870026  75.7229996  38.1110001  99.7350006
  75.2500000  37.2369995  99.2379990  76.8830032  38.4990005  98.9459991
  77.0899963  39.4729996  98.9079971  74.7259979  30.5750008  97.4440002
  75.1859970  30.3750000  98.4349976  75.7470016  30.5919991  96.4390030
  76.7509995  31.4379997  96.6029968  77.0439987  31.9969997  97.6510010
  77.7190018  31.2779999  95.4229965  77.7460022  30.2049999  95.1350021
  78.7320023  31.5669994  95.7760010  77.3280029  32.1380005  94.1979980
  77.4029999  33.2150002  94.4589996  76.2750015  31.9290009  93.9110031
  78.2360001  31.8349991  92.9950027  78.0530014  30.7870007  92.6729965
  79.2949982  31.9029999  93.3249969  78.0599976  32.7589989  91.7760010
  78.7440033  32.3979988  90.9789963  78.3769989  33.7900009  92.0390015
  76.6340027  32.8129997  91.2020035  76.0110016  33.4290009  91.8850021
  76.1910019  31.7950001  91.1780014  76.5810013  33.4160004  89.7870026
  77.3600006  34.2039986  89.6930008  75.5940018  33.9059982  89.6439972
  76.7480011  32.3709984  88.6699982  75.8369980  31.7350006  88.6679993
  77.6179962  31.7159996  88.8929977  76.9329987  32.9850006  87.2710037
  77.9940033  33.2929993  87.1559982  76.3140030  33.9039993  87.1949997
  76.5319977  32.0449982  86.1179962  76.4580002  31.0039997  86.4980011
  77.3199997  32.0670013  85.3349991  75.2009964  32.4700012  85.4810028
  75.3379974  33.4679985  85.0130005  74.4459991  32.5890007  86.2880020
  74.6149979  31.5130005  84.4300003  74.3990021  30.5359993  84.9130020
  75.3430023  31.3500004  83.6070023  73.3109970  32.0940018  83.8659973
  72.6880035  32.4099998  84.7289963  73.5699997  33.0060005  83.2860031
  72.4639969  31.1989994  82.9739990  72.9199982  31.1369991  81.9619980
  71.4449997  31.6270008  82.8610001  72.3750000  30.1749992  83.3949966
  73.7509995  29.4060001  97.1210022  72.7220001  29.6679993  97.4469986
  74.0729980  28.5410004  97.7399979  73.6999969  28.9239998  95.6510010
  72.9990005  28.0650005  95.5770035  74.7089996  28.5550003  95.3700027
  73.2740021  29.9780006  94.6169968  73.8960037  30.8889999  94.7470016
  72.2139969  30.2679996  94.7730026  73.4850006  29.4950008  93.1729965
  72.8150024  28.6329994  92.9680023  74.5339966  29.1439991  93.0699997
  73.2440033  30.5919991  92.1259995  72.1839981  30.9179993  92.1869965
  73.8789978  31.4729996  92.3600006  73.5479965  30.1210003  90.6969986
  73.0000000  29.1679993  90.5309982  74.6350021  29.9169998  90.5889969
  73.0950012  31.1250000  89.6279984  72.0510025  31.4069996  89.8840027
  73.7060013  32.0519981  89.6669998  73.0920029  30.5429993  88.2050018
  74.0739975  30.6989994  87.7080002  72.9290009  29.4480000  88.2969971
  71.9570007  31.1070004  87.3389969  72.2890015  32.0579987  86.8700027
  71.0970001  31.3430004  88.0009995  71.4290009  30.1490002  86.2659988
  72.2490005  29.9300003  85.5490036  71.1429977  29.1910000  86.7500000
  70.2109985  30.6919994  85.5169983  69.8870010  29.9820004  84.7259979
  69.3629990  30.8570004  86.2170029  70.4609985  31.6630001  85.0400009
  72.2639999  35.0709991  98.2580032  73.4550018  34.9860001  97.9599991
  71.1760025  35.2890015  97.2170029  70.2229996  34.8750000  97.6110001
  71.0419998  36.3779984  97.0449982  71.5169983  34.5660019  95.8960037
  71.8779984  33.5429993  96.1399994  72.4929962  35.3580017  95.2020035
  73.4329987  34.6800003  94.5390015  73.5039978  33.4630013  94.4589996
  74.6610031  35.5870018  94.3759995  75.5279999  34.9570007  94.0830002
  74.8779984  36.0400009  95.3669968  74.4229965  36.6930008  93.3379974
  75.1719971  37.4949989  93.5120010  73.4150009  37.1399994  93.4759979
  74.5589981  36.2299995  91.8850021  73.7539978  35.5050011  91.6340027
  75.5350037  35.7159996  91.7529984  74.5039978  37.4239998  90.9250031
  75.2549973  38.1679993  91.2659988  73.5029984  37.9039993  90.9850006
  74.8170013  37.0839996  89.4639969  73.9820023  36.4970016  89.0250015
  75.7350006  36.4589996  89.4270020  75.0559998  38.3569984  88.6419983
  75.8750000  38.9319992  89.1240005  74.1350021  38.9780006  88.6729965
  75.4359970  38.1129990  87.1770020  74.5999985  37.5750008  86.6819992
  76.3379974  37.4659996  87.1250000  75.6989975  39.4290009  86.4290009
  76.6100006  39.9129982  86.8389969  74.8389969  40.1059990  86.6210022
  75.8300018  39.2830009  84.9059982  75.9270020  40.2999992  84.4690018
  74.8889999  38.8429985  84.5139999  77.0139999  38.4379997  84.4240036
  77.9540024  38.8730011  84.8259964  76.9229965  37.4080009  84.8310013
  77.1129990  38.3680000  82.9029999  77.2389984  39.3870010  82.4800034
  77.9789963  37.7430000  82.5950012  76.1859970  37.9350014  82.4710007
  70.2289963  34.4259987  95.0459976  69.8369980  35.4440002  94.8339996
  69.4680023  33.8969994  95.6589966  70.3750000  33.6689987  93.7160034
  70.7369995  32.6339989  93.9000015  71.1409988  34.1920013  93.1050034
  69.0530014  33.6310005  92.9349976  68.6859970  34.6759987  92.8470001
  68.2949982  33.0559998  93.5090027  69.1579971  33.0600014  91.5110016
  68.1660004  33.1879997  91.0260010  69.3830032  31.9729996  91.5459976
  70.2190018  33.7700005  90.6589966  70.3030014  34.8250008  90.9990005
  71.2050018  33.2879982  90.8320007  69.9130020  33.8019981  89.1589966
  69.0120010  34.4290009  88.9869995  69.6940002  32.7729988  88.8000031
  71.0889969  34.3709984  88.3570023  71.9649963  33.7029991  88.5000000
  71.3580017  35.3699989  88.7630005  70.8109970  34.5089989  86.8570023
  70.4720001  33.5299988  86.4560013  69.9970016  35.2500000  86.7040024
  72.0520020  34.9580002  86.0800018  72.4270020  35.9099998  86.5130005
  72.8430023  34.1870003  86.2009964  71.8000031  35.1669998  84.5859985
  71.0240021  35.9519997  84.4639969  71.4010010  34.2210007  84.1620026
  73.0520020  35.5769997  83.8190002  73.3789978  36.5999985  84.1060028
  73.8860016  34.8829994  84.0589981  72.8710022  35.5579987  82.7229996
  72.4270020  40.4220009  95.8730011  72.4199982  41.2690010  95.1539993
  71.5100021  40.7389984  96.9150009  71.2190018  40.0019989  97.4580002
  71.9739990  39.1699982  95.0960007  71.8410034  38.3019981  95.7770004
  72.7990036  38.9259987  94.3939972  70.7040024  39.3670006  94.2570038
  70.8130035  40.3300018  93.7139969  69.8160019  39.4519997  94.9179993
  70.4919968  38.2610016  93.2119980  70.3960037  37.2719994  93.7080002
  71.4000015  38.2299995  92.5739975  69.2620010  38.5169983  92.3280029
  69.2490005  39.5940018  92.0550003  68.3359985  38.3069992  92.9059982
  69.2340012  37.7449989  91.0019989  69.1959991  36.6500015  91.1869965
  68.2969971  38.0239983  90.4739990  70.4209976  38.0849991  90.0889969
  71.2699966  37.4049988  90.3170013  70.7500000  39.1220016  90.3130035
  70.0910034  38.0299988  88.5940018  69.2630005  38.7389984  88.3850021
  69.7460022  37.0089989  88.3239975  71.2890015  38.4029999  87.7119980
  71.7040024  39.3759995  88.0520020  72.0810013  37.6339989  87.8359985
  70.9290009  38.5159988  86.2279968  70.4769974  37.5579987  85.8929977
  70.1699982  39.3170013  86.0989990  72.1279984  38.8300018  85.3310013
  72.5690002  39.8030014  85.6380005  72.8949966  38.0460014  85.5100021
  71.8040009  38.8740005  83.8420029  72.7350006  39.0009995  83.2490005
  71.3170013  37.9249992  83.5299988  71.1129990  39.7120018  83.6110001
  77.5849991  37.6139984  98.2149963  77.4120026  36.4000015  98.3270035
  78.5950012  38.1969986  97.2369995  79.6259995  38.0369987  97.6190033
  78.4150009  39.2910004  97.1669998  78.4189987  37.5810013  95.8339996
  77.3379974  37.4389992  95.6190033  79.0930023  36.3269997  95.7689972
  78.9489975  35.8320007  94.9589996  78.9950027  38.5139999  94.7490005
  80.0960007  38.5970001  94.8740005  78.5630035  39.5250015  94.9089966
  78.6650009  38.0820007  93.3099976  77.5690002  37.9210014  93.2300034
  79.1669998  37.1180000  93.0800018  79.0790024  39.1339989  92.2720032
  80.1829987  39.2579994  92.2850037  78.6279984  40.1059990  92.5660019
  78.6110001  38.8040009  90.8470001  78.7620010  39.7019997  90.2109985
  77.5220032  38.5859985  90.8639984  79.3460007  37.6250000  90.1890030
  80.4329987  37.8530006  90.1520004  79.2109985  36.7060013  90.7990036
  78.8389969  37.3559990  88.7649994  78.8610001  38.3089981  88.1940002
  77.7799988  37.0260010  88.8150024  79.6500015  36.3100014  87.9889984
  80.7160034  36.6230011  87.9769974  79.5859985  35.3279991  88.5049973
  79.1589966  36.1609993  86.5419998  78.1350021  35.7290001  86.5449982
  79.0889969  37.1739998  86.0910034  80.0759964  35.3100014  85.6559982
  81.1009979  35.7379990  85.6959991  80.1220016  34.2739983  86.0540009
  79.6179962  35.2770004  84.1930008  78.6320038  34.7690010  84.1340027
  79.4670029  36.3240013  83.8519974  80.6060028  34.5890007  83.2529984
  80.2330017  34.6259995  82.2070007  81.5940018  35.0940018  83.2919998
  80.7399979  33.5239983  83.5400009  72.8679962  31.6410007 107.1600037
  73.6389999  30.8230000 107.7369995  71.6460037  31.4519997 106.9000015
  73.3720016  33.1380005 107.0380020  75.2979965  34.5550003 107.2559967
  74.9120026  35.1119995 106.3750000  74.8190002  33.1949997 107.1750031
  72.6869965  33.9640007 108.1510010  72.8010025  33.4039993 109.1039963
  71.5989990  34.0250015 107.9359970  73.2419968  35.3409996 108.3600006
  73.0059967  35.9360008 107.4520035  72.6279984  35.9329987 109.5169983
  74.7529984  35.2770004 108.4889984  75.1350021  36.3199997 108.4670029
  75.1869965  34.6780014 109.7160034  74.8960037  35.2260017 110.4489975
  76.8180008  34.5680008 107.1389999  77.2529984  33.9500008 107.9530029
  77.3219986  35.9119987 107.2500000  78.1839981  35.8940010 106.8290024
  77.2190018  33.9949989 105.7850037  76.8190002  32.9640007 105.6760025
  76.7549973  34.6100006 104.9840012  78.6500015  33.9650002 105.5979996
  78.9889984  33.2010002 106.0699997  73.1940002  38.2229996 108.8170013
  72.9879990  38.8419991 107.7379990  74.1529999  38.4169998 109.6190033
  72.0729980  37.2309990 109.3209991  69.8460007  36.3839989 108.9029999
  70.2450027  35.3610001 109.0729980  70.9380035  37.2000008 108.4069977
  71.6110001  37.6459999 110.7320023  71.3089981  38.7140007 110.6880035
  72.4700012  37.5810013 111.4339981  70.4690018  36.8370018 111.2480011
  70.7910004  35.7779999 111.3399963  70.1080017  37.3019981 112.5479965
  70.5729980  36.7999992 113.2210007  69.3140030  36.8779984 110.2570038
  68.5449982  36.1609993 110.6139984  68.6969986  38.1699982 110.1569977
  68.3970032  38.4370003 111.0289993  68.7440033  36.2430000 107.8519974
  68.2689972  37.2360001 107.6989975  67.7429962  35.3120003 108.3050003
  67.3040009  35.0130005 107.5049973  69.3069992  35.7579994 106.5199966
  70.1279984  36.4269981 106.1839981  69.7360001  34.7410011 106.6449966
  68.3000031  35.7249985 105.4919968  68.2369995  36.6150017 105.1380005
  88.4720001  31.9419994 104.1159973  87.2190018  33.0239983 105.3980026
  87.3919983  32.1619987 104.2549973  86.8809967  31.1900005 104.4229965
  86.8310013  32.7949982 102.9820023  87.5579987  34.0009995 102.6979980
  85.7730026  33.0610008 103.1940002  86.9209976  34.7340012 101.6460037
  85.8339996  34.7970009 101.8679962  87.3619995  36.0719986 101.4599991
  88.4960022  36.5029984 102.2279968  88.5350037  36.0209999 103.2279968
  88.3619995  37.5880013 102.4280014  86.8700027  31.8729992 101.7460022
  87.9229965  31.5380001 101.6279984  85.9759979  30.7819996 102.0059967
  86.4189987  29.1700001 101.9729996  85.3649979  28.4400005 102.8140030
  87.8180008  29.0270004 102.5859985  86.3710022  28.7019997 100.5149994
  86.4580002  32.6090012 100.4609985  86.7839966  31.7789993  99.3300018
  85.3639984  32.7799988 100.5579987  85.9110031  31.7450008  98.3219986
  84.8369980  32.3349991  98.3020020  86.5759964  31.2240009  97.0619965
  87.6299973  31.5760002  97.0350037  86.0370026  31.6469994  96.1880035
  87.0899963  34.0009995 100.3339996  88.1809998  33.8720016 100.1709976
  86.5490036  34.7999992  99.2350006  85.8199997  35.4370003  99.4759979
  89.8239975  36.9459991 100.0839996  89.0820007  36.3790016  99.4820023
  89.4240036  38.3219986 100.0820007  90.0759964  38.8779984 100.5139999
  89.8239975  36.3390007 101.4919968  90.5770035  36.8940010 102.0910034
  90.2289963  34.9510002 101.4940033  91.4860001  34.6949997 100.8280029
  91.5100021  33.5929985 100.6959991  92.5699997  35.1419983 101.6380005
  93.0790024  32.8600006 102.7580032  94.6139984  33.7330017 100.9240036
  94.5650024  34.8759995 103.1880035  93.7590027  34.0919991 102.1449966
  91.2030029  36.7570000  99.4820023  91.9240036  37.1749992 100.2170029
  91.4919968  37.4679985  98.2730026  90.7149963  37.2789993  97.2109985
  89.8470001  36.4290009  97.1129990  91.3740005  37.9710007  96.0240021
  91.5910034  37.2039986  95.2509995  92.3339996  38.4319992  96.3399963
  91.4680023  35.2700005  99.4100037  90.5770035  34.8269997  98.9140015
  92.6200027  34.9160004  98.5989990  93.3010025  35.6279984  98.4469986
  86.4700012  29.6949997  97.0459976  86.8450012  29.3059998  98.0169983
  87.2549973  29.1599998  95.9720001  88.5670013  29.2830009  96.0950012
  89.1679993  29.5750008  97.1190033  89.2399979  28.8659992  94.7850037
  88.7779999  27.9169998  94.4390030  90.3140030  28.6790009  94.9960022
  89.0940018  29.9540005  93.6989975  89.5930023  30.8889999  94.0329971
  88.0169983  30.1800003  93.5500031  89.6959991  29.5149994  92.3570023
  89.1999969  28.5739994  92.0370026  90.7760010  29.2940006  92.4980011
  89.5500031  30.5459995  91.2229996  90.0100021  30.1070004  90.3130035
  90.1210022  31.4680004  91.4660034  88.0950012  30.9340000  90.9120026
  87.7789993  31.7210007  91.6289978  87.4349976  30.0550003  91.0749969
  87.8710022  31.4340000  89.4739990  88.6210022  32.2130013  89.2220001
  86.8649979  31.9029999  89.4229965  87.9189987  30.3020000  88.4339981
  87.2350006  29.4920006  88.7669983  88.9520035  29.8959999  88.4010010
  87.5220032  30.7129993  87.0110016  88.2500000  31.4729996  86.6549988
  86.5169983  31.1860008  87.0339966  87.5149994  29.5459995  86.0120010
  86.8430023  28.7460003  86.3889999  88.5449982  29.1329994  85.9629974
  87.0879974  29.9370003  84.5889969  87.7519989  30.7530003  84.2330017
  86.0520020  30.3390007  84.6179962  87.1660004  28.7700005  83.5889969
  86.4420013  27.9820004  83.8880005  88.1859970  28.3320007  83.6460037
  86.8960037  29.1800003  82.1320038  87.6129990  29.9839993  81.8610001
  87.1039963  28.3120003  81.4700012  85.4779968  29.6849995  81.8639984
  85.3509979  29.9480000  80.7919998  85.2809982  30.5960007  82.4680023
  84.7279968  28.9120007  82.1370010  85.0029984  29.2089996  96.8840027
  84.3010025  29.9459991  97.3290024  84.9140015  28.2770004  97.4830017
  84.5309982  28.8549995  95.4550018  83.4970016  28.4529991  95.5169983
  85.1740036  28.0340004  95.0729980  84.5429993  29.9890003  94.4130020
  85.5699997  30.4050007  94.3290024  83.8629990  30.8080006  94.7279968
  84.1259995  29.4570007  93.0329971  83.0920029  29.0540009  93.1019974
  84.7990036  28.6110001  92.7779999  84.1849976  30.4650002  91.8759995
  83.4629974  31.2880001  92.0630035  85.2020035  30.9080009  91.8219986
  83.8590012  29.7819996  90.5360031  82.8740005  29.2759991  90.6259995
  84.6240005  28.9990005  90.3440018  83.8130035  30.7280006  89.3270035
  83.0550003  31.5189991  89.5100021  84.8000031  31.2269993  89.2160034
  83.4789963  29.9969997  88.0149994  84.2590027  29.2269993  87.8300018
  82.5029984  29.4769993  88.1250000  83.4179993  30.9340000  86.8000031
  84.4120026  31.4179993  86.6890030  82.6689987  31.7320004  86.9879990
  83.0879974  30.2240009  85.4800034  83.8590012  29.4440002  85.3010025
  82.1060028  29.7140007  85.5790024  83.0510025  31.1650009  84.2730026
  82.8170013  30.6009998  83.3440018  82.2789993  31.9519997  84.4120026
  84.0370026  31.6580009  84.1409988  86.9919968  34.7719994  97.9670029
  87.9160004  34.0460014  97.6100006  86.2549973  35.6899986  97.0029984
  85.2839966  35.9790001  97.4589996  86.8550034  36.6090012  96.8349991
  85.9810028  34.9679985  95.6679993  85.6409988  33.9329987  95.8860016
  87.1890030  35.0120010  94.8919983  87.4469986  33.9360008  94.1439972
  86.7630005  32.9230003  94.1029968  88.9309998  33.9560013  93.7519989
  89.1839981  32.9749985  93.2949982  89.5189972  34.0680008  94.6880035
  89.2750015  35.0950012  92.7750015  90.3659973  35.2890015  92.8590012
  88.7460022  36.0289993  93.0589981  88.9820023  34.7639999  91.3069992
  87.8860016  34.6860008  91.1409988  89.4339981  33.7779999  91.0690002
  89.5869980  35.8059998  90.3509979  90.6559982  35.9309998  90.6279984
  89.0899963  36.7900009  90.4850006  89.5360031  35.4000015  88.8710022
  88.5319977  35.6430016  88.4619980  89.6750031  34.3009987  88.7900009
  90.6240005  36.0800018  88.0260010  91.6230011  35.7879982  88.4160004
  90.5230026  37.1809998  88.1360016  90.5500031  35.7400017  86.5319977
  89.5189972  35.9539986  86.1770020  90.7409973  34.6539993  86.3929977
  91.5250015  36.5480003  85.6620026  92.5690002  36.3289986  85.9710007
  91.3330002  37.6259995  85.8489990  91.3750000  36.2989998  84.1510010
  91.9410019  37.0849991  83.6070023  90.3030014  36.4010010  83.8799973
  91.8830032  34.9239998  83.6969986  92.9749985  34.8699989  83.8919983
  91.3980026  34.1510010  84.3310013  91.6169968  34.5820007  82.2320023
  92.0920029  35.3240013  81.5550003  92.0169983  33.5740013  81.9940033
  90.5230026  34.5760002  82.0339966  84.8349991  35.6949997  94.9150009
  85.1529999  36.7420006  94.7210007  83.9430008  35.7280006  95.5759964
  84.4339981  35.0410004  93.5859985  84.1070023  33.9939995  93.7610016
  85.3550034  35.0089989  92.9660034  83.3430023  35.8019981  92.8150024
  83.6630020  36.8610001  92.7170029  82.3939972  35.7879982  93.3919983
  83.0940018  35.2509995  91.3960037  82.3690033  35.9150009  90.8779984
  82.6409988  34.2379990  91.4649963  84.3850021  35.1660004  90.5709991
  84.9160004  36.1389999  90.6470032  85.0439987  34.3880005  91.0130005
  84.2239990  34.8219986  89.0869980  83.6460037  35.6220016  88.5770035
  83.6729965  33.8629990  88.9810028  85.6080017  34.6899986  88.4420013
  86.1750031  33.9049988  88.9850006  86.1579971  35.6450005  88.5849991
  85.6149979  34.3429985  86.9520035  85.0670013  33.3899994  86.7990036
  85.0999985  35.1409988  86.3759995  87.0469971  34.1839981  86.4329987
  87.5719986  35.1590004  86.5309982  87.5770035  33.4640007  87.0920029
  87.1470032  33.6949997  84.9869995  86.6500015  34.4329987  84.3209991
  86.5970001  32.7340012  84.9049988  88.5830002  33.4819984  84.5159988
  89.1240005  34.4510002  84.4759979  89.1289978  32.8100014  85.2119980
  88.5999985  33.0260010  83.5029984  90.4560013  39.0569992  95.4349976
  91.0439987  39.5979996  94.6640015  90.1019974  40.0029984  96.4390030
  89.3610001  39.7639999  97.0009995  89.1999969  38.5009995  94.7289963
  88.5660019  37.9370003  95.4469986  89.5609970  37.7809982  93.9639969
  88.3349991  39.5540009  94.0130005  88.9909973  40.2010002  93.3929977
  87.8379974  40.1990013  94.7679977  87.2720032  38.9239998  93.0989990
  86.6709976  38.1860008  93.6719971  87.7949982  38.3709984  92.2900009
  86.3270035  39.9659996  92.4800034  86.9319992  40.7900009  92.0469971
  85.7020035  40.4020004  93.2890015  85.4100037  39.4129982  91.3750000
  84.8669968  38.5169983  91.7450027  84.6569977  40.1920013  91.1279984
  86.1709976  39.0589981  90.0910034  86.8339996  38.1879997  90.2819977
  86.8199997  39.9189987  89.8180008  85.2730026  38.7400017  88.8870010
  84.6050034  39.6049995  88.6890030  84.6389999  37.8600006  89.1269989
  86.1019974  38.4389992  87.6330032  86.7689972  39.3050003  87.4319992
  86.7549973  37.5649986  87.8430023  85.2860031  38.1459999  86.3669968
  84.5749969  37.3180008  86.5739975  84.7020035  39.0489998  86.0869980
  86.1979980  37.7430000  85.2009964  86.9599991  38.5429993  85.0830002
  86.7409973  36.8180008  85.4899979  85.5070038  37.5139999  83.8600006
  86.2419968  37.1650009  83.1039963  84.7089996  36.7470016  83.9560013
  85.0550003  38.4609985  83.4960022  92.7220001  33.7179985  97.9980011
  91.9509964  32.7919998  98.2570038  93.8059998  33.5839996  96.9380035
  94.5940018  32.8839989  97.2900009  94.2669983  34.5800018  96.7710037
  93.1620026  33.0960007  95.6259995  92.1399994  33.5190010  95.5270004
  93.0940018  31.6709995  95.6320038  92.6029968  31.2840004  94.9029999
  93.9609985  33.5559998  94.3919983  94.9469986  33.0429993  94.3730011
  94.1490021  34.6469994  94.4850006  93.2170029  33.3180008  93.0690002
  92.2009964  33.7589989  93.1470032  93.0989990  32.2260017  92.9020004
  93.9179993  33.9430008  91.8570023  94.8990021  33.4480019  91.6920013
  94.1139984  35.0149994  92.0729980  93.0770035  33.8530006  90.5790024
  93.5569992  34.4630013  89.7850037  92.0739975  34.2890015  90.7770004
  92.8949966  32.4239998  90.0520020  93.8970032  32.0180016  89.7959976
  92.4479980  31.7749996  90.8349991  92.0000000  32.3810005  88.8089981
  92.3130035  33.2109985  88.1399994  90.9420013  32.5649986  89.0950012
  92.1159973  31.0680008  88.0270004  93.1989975  30.8409996  87.9339981
  91.6360016  30.2380009  88.5869980  91.5309982  31.1779995  86.6129990
  90.4850006  30.8069992  86.5839996  91.5039978  32.2560005  86.3460007
  92.3929977  30.4880009  85.5500031  93.4580002  30.7320004  85.7559967
  92.2809982  29.3840008  85.6070023  92.0889969  30.9850006  84.1350021
  91.0719986  30.6499996  83.8399963  92.0800018  32.0960007  84.1650009
  93.1240005  30.5410004  83.1060028  92.9000015  30.9820004  82.1110001
  94.1320038  30.8859997  83.4219971  93.1409988  29.4340000  83.0139999
  85.6839981  31.5400009 106.6360016  85.6419983  30.4500008 107.2730026
  84.6849976  32.2109985 106.2500000  87.0739975  32.3030014 106.6250000
  89.4329987  32.0499992 107.0289993  89.6190033  32.6739998 106.1289978
  88.1679993  31.3710003 106.8529968  87.0370026  33.3870010 107.7210007
  86.6930008  32.9049988 108.6610031  86.2740021  34.1459999 107.4459991
  88.3519974  34.0540009 107.9940033  88.6380005  34.6290016 107.0869980
  88.2009964  34.9399986 109.1169968  89.4140015  33.0000000 108.2310028
  90.3980026  33.5149994 108.2649994  89.2389984  32.3079987 109.4739990
  89.3300018  32.9370003 110.1930008  90.5619965  31.0240002 107.0960007
  90.3939972  30.3700008 107.9779968  91.8379974  31.6770000 107.2389984
  92.4840012  31.0289993 106.9469986  90.5859985  30.1630001 105.8379974
  89.5859985  29.7119999 105.6610031  90.8170013  30.8020000 104.9589996
  91.5660019  29.1089993 105.9349976  91.1100006  28.3080006 106.2060013
  90.2549973  36.2080002 108.6370010  90.6689987  36.8019981 107.6039963
  90.9710007  35.7019997 109.5469971  88.7060013  36.2599983 108.9390030
  86.5830002  37.1220016 108.1839981  86.1579971  36.1069984 108.3379974
  87.9929962  36.9760017 107.8929977  88.4550018  36.9300003 110.3040009
  88.9629974  37.9179993 110.2959976  88.9329987  36.3240013 111.1029968
  87.0070038  37.1279984 110.6119995  86.5130005  36.1349983 110.6729965
  86.8730011  37.7639999 111.8809967  86.8130035  37.1040001 112.5759964
  86.3349991  37.9000015 109.4840012  85.2429962  37.9049988 109.6849976
  86.7710037  39.2649994 109.3889999  86.5569992  39.7159996 110.2089996
  85.8590012  37.7109985 106.9789963  86.2180023  38.7500000 106.8180008
  84.4380035  37.7330017 107.2170029  84.0449982  37.8540001 106.3489990
  86.1370010  36.8989983 105.7180023  87.2330017  36.8370018 105.5500031
  85.7570038  35.8619995 105.8379974  85.5329971  37.5139999 104.5619965
  85.8889999  37.0800018 103.7829971  44.2789993  61.3219986 104.3280029
  45.9570007  61.2089996 105.5729980  45.2750015  61.7989998 104.4489975
  45.0880013  62.8779984 104.6360016  46.0649986  61.6590004 103.1449966
  46.1430016  60.2729988 102.7819977  47.0900002  62.0460014 103.3330002
  47.0999985  60.0769997 101.7320023  48.0779991  60.5219994 102.0149994
  47.2919998  58.7290001 101.3410034  47.1730003  57.7249985 102.3590012
  46.8779984  58.1389999 103.3470001  48.1520004  57.2150002 102.4860001
  45.4589996  62.4360008 101.9700012  44.4199982  62.0589981 101.8539963
  45.5070000  63.8209991 102.3369980  44.2459984  64.8840027 102.1009979
  44.4519997  66.0189972 103.1129990  42.9249992  64.1539993 102.3629990
  44.3670006  65.4199982 100.6750031  46.2010002  62.1769981 100.6579971
  45.3670006  62.6199989  99.5709991  47.1580009  62.7369995 100.7279968
  45.9370003  63.3170013  98.5889969  47.1269989  63.6080017  98.5350037
  45.0730019  63.2410011  97.3369980  44.5909996  62.2410011  97.2799988
  45.7340012  63.3699989  96.4540024  46.5789986  60.7130013 100.4550018
  45.6349983  60.1699982 100.2330017  47.5050011  60.5219994  99.3349991
  48.4770012  60.6040001  99.5439987  46.5209999  56.1580009 100.4869995
  46.7639999  57.0279999  99.8410034  47.6879997  55.3289986 100.5960007
  48.2200012  55.3820000  99.7990036  46.1370010  56.7179985 101.8659973
  46.1150017  55.8629990 102.5759964  44.8440018  57.3670006 101.9609985
  43.7659988  56.7249985 101.2500000  43.0309982  57.5480003 101.1210022
  43.2179985  55.6720009 102.0429993  41.1860008  57.0509987 102.8960037
  40.8260002  55.2000008 101.1880035  41.4630013  54.6230011 103.5650024
  41.5970001  55.6479988 102.4339981  45.3580017  55.4169998  99.8610001
  45.0940018  54.5919991 100.5569992  45.6459999  54.7879982  98.6019974
  46.1180000  55.5400009  97.6060028  46.1069984  56.7589989  97.5680008
  46.4269981  54.6409988  96.4169998  45.6080017  54.7430000  95.6740036
  46.4700012  53.5830002  96.7519989  44.1749992  56.3629990  99.8209991
  44.5589981  57.3069992  99.3779984  43.0670013  55.9150009  98.9899979
  42.9500008  54.9300003  98.8850021  44.0439987  64.3759995  97.3750000
  43.5190010  64.3460007  98.3539963  43.0950012  64.2289963  96.3089981
  42.2229996  63.2389984  96.4270020  42.0330009  62.5740013  97.4349976
  41.2690010  63.2680016  95.2239990  40.9189987  64.3140030  95.0879974
  40.3909988  62.6329994  95.4690018  41.9490013  62.7649994  93.9309998
  42.2029991  61.6889992  94.0390015  42.8950005  63.3279991  93.7789993
  41.0680008  62.9459991  92.6849976  40.7949982  64.0189972  92.5920029
  40.1269989  62.3699989  92.8180008  41.7389984  62.5029984  91.3710022
  41.0060005  62.6440010  90.5479965  41.9830017  61.4199982  91.4179993
  43.0159988  63.2919998  91.0390015  43.8190002  62.9760017  91.7379990
  42.8349991  64.3750000  91.2119980  43.5239983  63.1150017  89.5989990
  43.6329994  62.0359993  89.3600006  44.5349998  63.5730019  89.5469971
  42.6590004  63.8089981  88.5339966  42.4770012  64.8560028  88.8580017
  41.6769981  63.2949982  88.4580002  43.3300018  63.8429985  87.1529999
  43.5159988  62.8019981  86.8119965  44.3170013  64.3410034  87.2539978
  42.5139999  64.5800018  86.0820007  42.3199997  65.6210022  86.4189987
  41.5349998  64.0699997  85.9599991  43.2270012  64.6149979  84.7220001
  43.4650002  63.5699997  84.4319992  44.1920013  65.1559982  84.8270035
  42.3919983  65.2549973  83.6029968  42.3009987  66.3470001  83.7890015
  41.3709984  64.8180008  83.6460037  42.9329987  65.0070038  82.1839981
  42.9000015  63.9129982  81.9970016  42.2379990  65.4850006  81.4609985
  44.3559990  65.5059967  81.9260025  44.6549988  65.3069992  80.8750000
  45.0750008  64.9869995  82.5950012  44.4300003  66.5989990  82.1129990
  44.7179985  65.7699966  97.2519989  45.7680016  65.7220001  97.6129990
  44.1710014  66.4430008  97.9459991  44.6850014  66.4530029  95.8690033
  45.1160011  67.4720001  95.9759979  43.6230011  66.5810013  95.5690002
  45.4300003  65.7450027  94.7249985  45.0620003  64.7020035  94.6169968
  46.5169983  65.7020035  94.9499969  45.1889992  66.4869995  93.4020004
  45.5000000  67.5459976  93.5260010  44.0970001  66.4830017  93.1989975
  45.9080009  65.9029999  92.1780014  47.0070000  65.9509964  92.3300018
  45.6250000  64.8349991  92.0589981  45.5250015  66.6689987  90.9029999
  45.7480011  67.7480011  91.0490036  44.4280014  66.5729980  90.7539978
  46.2309990  66.1859970  89.6299973  47.3289986  66.2979965  89.7509995
  46.0169983  65.1060028  89.4769974  45.7639999  66.9700012  88.3970032
  44.6660004  66.8389969  88.2919998  45.9640007  68.0500031  88.5630035
  46.4269981  66.5429993  87.0810013  46.1860008  65.4769974  86.8820038
  47.5309982  66.6309967  87.1689987  45.9430008  67.3860016  85.8929977
  44.8349991  67.3130035  85.8470001  46.2039986  68.4499969  86.0780029
  46.5180016  66.9479980  84.5500031  46.1720009  67.6169968  83.7330017
  47.6290016  66.9619980  84.5780029  46.1889992  65.9130020  84.3160019
  47.1160011  60.2540016  98.0749969  45.9329987  60.1170006  97.7710037
  48.2280006  60.1529999  97.0390015  49.1489983  60.6110001  97.4589996
  48.4290009  59.0820007  96.8229980  47.8320007  60.9039993  95.7490005
  47.3989983  61.8860016  96.0380020  46.9039993  60.0760002  95.0299988
  45.9290009  60.7070007  94.3720016  45.7789993  61.9199982  94.3310013
  44.7509995  59.7360001  94.1989975  43.8689995  60.3269997  93.8710022
  44.5260010  59.3019981  95.1969986  45.0200005  58.6059990  93.1890030
  44.2150002  57.8510017  93.3199997  45.9840012  58.1030006  93.4150009
  44.9980011  59.0499992  91.7200012  45.9300003  59.6069984  91.4820023
  44.1380005  59.7340012  91.5520020  44.8540001  57.8440018  90.7770004
  43.9259987  57.2980003  91.0510025  45.7120018  57.1570015  90.9410019
  44.7760010  58.1949997  89.2839966  45.7350006  58.6549988  88.9639969
  43.9659996  58.9389992  89.1240005  44.4930000  56.9640007  88.4079971
  43.5369987  56.5009995  88.7350006  45.3030014  56.2200012  88.5640030
  44.4049988  57.2789993  86.9079971  45.3759995  57.7089996  86.5820007
  43.6189995  58.0449982  86.7360001  44.1049995  56.0419998  86.0449982
  43.0979996  55.6419983  86.2900009  44.8559990  55.2639999  86.3020020
  44.2109985  56.3089981  84.5360031  44.2639999  55.3400002  83.9950027
  45.1599998  56.8559990  84.3509979  43.0660019  57.1339989  83.9400024
  42.1320000  56.5340004  83.9929962  42.9160004  58.0480003  84.5540009
  43.3219986  57.5509987  82.4940033  44.2369995  58.1790009  82.4349976
  43.4760017  56.6529999  81.8580017  42.4640007  58.1329994  82.0950012
  49.0909996  61.1839981  94.8830032  49.4860001  60.2169991  94.5049973
  49.8709984  61.6380005  95.5309982  48.8419991  62.1320000  93.6989975
  48.4710007  63.1119995  94.0690002  48.0340004  61.6710014  93.0930023
  50.0660019  62.3470001  92.7919998  50.4150009  61.3460007  92.4619980
  50.8919983  62.8219986  93.3639984  49.7610016  63.1769981  91.5260010
  50.6170006  63.0690002  90.8259964  49.6640015  64.2529984  91.7829971
  48.4760017  62.7060013  90.8359985  48.4609985  61.5970001  90.9029999
  47.5870018  63.0730019  91.3919983  48.3190002  63.0379982  89.3509979
  49.2639999  62.8089981  88.8130035  48.0940018  64.1179962  89.2180023
  47.1930008  62.1749992  88.7689972  46.2669983  62.3339996  89.3610001
  47.4879990  61.1129990  88.9089966  46.8880005  62.3849983  87.2870026
  46.3160019  63.3269997  87.1470032  47.8450012  62.4799995  86.7310028
  46.1170006  61.1969986  86.6979980  46.7099991  60.2770004  86.8870010
  45.1419983  61.0859985  87.2210007  45.8740005  61.3110008  85.1920013
  46.8400002  61.5569992  84.6999969  45.1780014  62.1559982  85.0019989
  45.3160019  60.0390015  84.5619965  46.0089989  59.1850014  84.7200012
  44.3380013  59.7750015  85.0189972  45.1660004  60.1780014  83.4700012
  47.7700005  55.0070000  95.7590027  48.0419998  54.1660004  95.0869980
  48.8040009  55.1259995  96.7310028  48.9770012  56.0169983  97.0429993
  47.6930008  56.2700005  94.8769989  47.5279999  57.1769981  95.4960022
  46.8050003  56.1520004  94.2200012  48.9090004  56.4900017  93.9639969
  49.1329994  55.5330009  93.4459991  49.7980003  56.7649994  94.5709991
  48.6459999  57.5550003  92.8919983  48.3680000  58.5120010  93.3830032
  47.7760010  57.2290001  92.2829971  49.8429985  57.8030014  91.9619980
  50.1800003  56.8400002  91.5220032  50.6800003  58.2029991  92.5729980
  49.5419998  58.7960014  90.8270035  49.0670013  59.6850014  91.2949982
  50.4939995  59.1209984  90.3560028  48.6049995  58.2750015  89.7229996
  48.2159996  59.1489983  89.1589966  47.7260017  57.7639999  90.1719971
  49.2719994  57.3409996  88.7020035  49.6730003  56.4410019  89.2149963
  50.1240005  57.8790016  88.2330017  48.3079987  56.9070015  87.5869980
  47.4959984  56.2929993  88.0339966  47.8320007  57.8050003  87.1389999
  48.9939995  56.1069984  86.4749985  49.7739983  56.7360001  85.9940033
  49.5130005  55.2350006  86.9290009  48.0390015  55.5789986  85.3990021
  48.4679985  54.6339989  85.0009995  47.0639992  55.3260002  85.8690033
  47.8230019  56.5359993  84.2289963  47.0999985  56.1059990  83.5029984
  47.4269981  57.5079994  84.5940018  48.7849998  56.7210007  83.7050018
  42.2010002  56.7830009  98.4300003  42.2859993  57.9980011  98.6240005
  41.1100006  56.1829987  97.5439987  40.1240005  56.3209991  98.0380020
  41.2989998  55.0940018  97.4400024  41.1189995  56.8349991  96.1449966
  42.1699982  56.9669991  95.8079987  40.4640007  58.0999985  96.1989975
  40.5419998  58.6349983  95.4059982  40.3950005  55.9490013  95.1070023
  39.3100014  55.9109993  95.3440018  40.7939987  54.9169998  95.1989975
  40.5919991  56.3969994  93.6470032  41.6809998  56.4379997  93.4319992
  40.1819992  57.4199982  93.5059967  39.9280014  55.4480019  92.6380005
  38.8240013  55.5239983  92.7300034  40.2150002  54.4049988  92.8899994
  40.3400002  55.7169991  91.1809998  39.8779984  54.9469986  90.5270004
  41.4420013  55.6090012  91.0930023  39.9370003  57.1030006  90.6559982
  38.8450012  57.2519989  90.7910004  40.4659996  57.8800011  91.2480011
  40.2949982  57.2799988  89.1740036  39.6699982  56.5999985  88.5569992
  41.3549995  56.9790001  89.0350037  40.1500015  58.7239990  88.6689987
  39.1129990  59.0919991  88.8209991  40.8289986  59.3590012  89.2770004
  40.5470009  58.8699989  87.1910019  40.9640007  59.8839989  87.0169983
  41.3540001  58.1380005  86.9739990  39.3899994  58.6619987  86.2020035
  38.7350006  57.8359985  86.5510025  38.7770004  59.5880013  86.1699982
  39.8839989  58.3250008  84.7919998  40.7260017  59.0019989  84.5360031
  40.2840004  57.2890015  84.8089981  38.8199997  58.4339981  83.7040024
  39.2280006  58.0940018  82.7279968  37.9379997  57.8089981  83.9609985
  38.4910011  59.4889984  83.5930023  46.1510010  63.2789993 106.8980026
  45.4459991  64.1299973 107.5110016  47.3699989  63.4099998 106.5910034
  45.5769997  61.8030014 106.8199997  43.5950012  60.4690018 107.1399994
  43.8829994  59.8889999 106.2369995  44.1329994  61.8059998 107.0090027
  46.2700005  60.9630013 107.9130020  46.1949997  61.5250015 108.8679962
  47.3510017  60.8769989 107.6719971  45.6790009  59.6030006 108.1269989
  45.8310013  59.0219994 107.1930008  46.3540001  58.9640007 109.2259979
  44.1850014  59.7280006 108.3420029  43.7540016  58.7039986 108.3460007
  43.8520012  60.3460007 109.5920029  44.1360016  59.7739983 110.3089981
  42.0699997  60.5229988 107.1620026  41.7480011  61.1040001 108.0530014
  41.5139999  59.1959991 107.2440033  40.6189995  59.2750015 106.9039993
  41.5369987  61.2050018 105.9059982  42.0079994  62.2039986 105.7819977
  41.8110008  60.6010017 105.0149994  40.1049995  61.3650017 105.9540024
  39.9169998  62.2449989 106.2860031  45.4529991  56.7449989 108.7399979
  45.2779999  56.2490005 107.5940018  44.6920013  56.6069984 109.7409973
  46.7470016  57.6150017 108.9830017  48.9020004  58.2309990 108.1090012
  48.6389999  59.2779999 108.3750000  47.6699982  57.5139999 107.8600006
  47.4410019  57.1780014 110.2929993  47.6020012  56.0800018 110.2389984
  46.7610016  57.3670006 111.1510010  48.7570000  57.8460007 110.5260010
  48.5839996  58.9379997 110.6340027  49.3279991  57.3750000 111.7470016
  49.1160011  57.9749985 112.4660034  49.6599998  57.6549988 109.3119965
  50.5740013  58.2610016 109.4860001  50.0709991  56.2970009 109.0989990
  50.8199997  56.2939987 108.4980011  49.7500000  58.3300018 106.8450012
  50.0670013  57.3089981 106.5439987  50.9150009  59.1389999 107.0999985
  51.3110008  59.2770004 106.2360001  48.9620018  58.9539986 105.7009964
  48.0260010  58.3810005 105.5289993  48.6769981  59.9949989 105.9639969
  49.7360001  58.9500008 104.4850006  49.2439995  59.4440002 103.8249969
  98.8099976  54.9049988 104.2939987  98.3249969  53.3050003 105.5559998
  98.9990005  53.8139992 104.3870010 100.0970001  53.6920013 104.5049973
  98.5670013  53.1100006 103.0950012  97.1949997  53.4249992 102.7890015
  98.6660004  52.0169983 103.2730026  96.6900024  52.5540009 101.7649994
  96.8399963  51.5019989 102.0910034  95.3209991  52.7140007 101.4270020
  94.4909973  53.4669991 102.3239975  94.8720016  53.4550018 103.3669968
  93.4980011  52.9679985 102.3460007  99.4079971  53.4819984 101.8639984
  99.2529984  54.5699997 101.7020035 100.7799988  53.1590004 102.1299973
 102.0550003  54.2509995 102.0159988 102.7330017  54.2770004 103.3960037
 101.5230026  55.6399994 101.6279984 102.9940033  53.6720009 100.9449997
  98.9250031  52.7379990 100.6100006  99.5810013  53.3409996  99.4830017
  99.2070007  51.6720009 100.7460022  99.9479980  52.5629997  98.4739990
  99.8629990  51.3400002  98.4499969 100.1900024  53.4099998  97.2379990
  99.4380035  54.2260017  97.2099991 100.0380020  52.7680016  96.3440018
  97.4010010  52.7709999 100.4359970  97.1419983  53.8089981 100.1380005
  96.8870010  51.8510017  99.4059982  96.5559998  50.9659996  99.7249985
  94.1389999  54.9550018 100.2870026  95.0899963  54.5719986  99.8600006
  93.0839996  54.1150017  99.7949982  92.2229996  54.4290009 100.0820007
  94.2669983  54.8940010 101.8119965  93.3030014  55.2470016 102.2360001
  95.2850037  55.7680016 102.3560028  95.2789993  57.1209984 101.8410034
  96.3099976  57.4700012 102.0589981  94.3180008  57.9169998 102.5329971
  96.0319977  59.0410004 104.1389999  95.0920029  60.3779984 102.1880035
  93.5999985  59.7719994 104.1439972  94.7929993  59.3419991 103.2819977
  93.9800034  56.3880005  99.8389969  93.1070023  56.8110008 100.3820038
  93.6689987  56.4939995  98.4390030  94.5719986  55.9819984  97.5989990
  95.7740021  55.9199982  97.7959976  93.9690018  55.8930016  96.2109985
  94.8109970  55.6819992  95.5169983  93.5270004  56.8720016  95.9280014
  95.2050018  57.1389999 100.3150024  96.0780029  56.5239983 100.0110016
  95.3690033  58.4490013  99.7089996  94.5429993  58.8989983  99.3799973
 101.6269989  53.9449997  97.2979965 101.8270035  54.3089981  98.3280029
 101.7929993  55.0250015  96.3690033 101.1289978  56.1349983  96.6760025
 100.6039963  56.3839989  97.7509995 101.0500031  57.0499992  95.4560013
 102.0859985  57.2760010  95.1230011 100.5640030  58.0000000  95.7649994
 100.2529984  56.3870010  94.3190002  99.2210007  56.1549988  94.6579971
 100.7490005  55.4259987  94.0630035 100.1920013  57.2669983  93.0640030
 101.2170029  57.6300011  92.8379974  99.5609970  58.1580009  93.2699966
  99.6709976  56.5550003  91.8040009  99.7809982  57.2570000  90.9499969
  98.5839996  56.3610001  91.9270020 100.3939972  55.2379990  91.4700012
 100.0490036  54.4599991  92.1829987 101.4860001  55.3740005  91.6279984
 100.1729965  54.7229996  90.0390015  99.0869980  54.7249985  89.8079987
 100.5299988  53.6720009  89.9889984 100.9280014  55.5359993  88.9759979
 102.0110016  55.5239983  89.2249985 100.5800018  56.5900002  89.0039978
 100.7419968  55.0070000  87.5469971  99.6809998  55.1459999  87.2490005
 100.9609985  53.9179993  87.5169983 101.6399994  55.7239990  86.5309982
 102.7050018  55.5209999  86.7720032 101.4789963  56.8180008  86.6380005
 101.3679962  55.3569984  85.0640030 100.3099976  55.6150017  84.8420029
 101.4840012  54.2630005  84.9069977 102.2659988  56.1189995  84.0810013
 103.2919998  55.6959991  84.1220016 102.3180008  57.1730003  84.4280014
 101.7689972  56.1609993  82.6279984 100.8010025  56.7060013  82.6129990
 102.5049973  56.7610016  82.0510025 101.5790024  54.8219986  81.9319992
 100.8489990  54.1930008  82.4850006 102.5469971  54.2779999  81.8830032
 101.2020035  54.9739990  80.8980026 102.6809998  52.8400002  96.9990005
 102.3519974  51.8849983  97.4619980 103.6119995  53.1520004  97.5189972
 103.0680008  52.5929985  95.5199966 103.8880005  51.8429985  95.5059967
 103.4810028  53.5320015  95.0950012 101.9550018  52.0919991  94.5820007
 101.1539993  52.8590012  94.5250015 101.5159988  51.1549988  94.9889984
 102.4649963  51.8440018  93.1520004 103.3259964  51.1419983  93.1930008
 102.8389969  52.8069992  92.7429962 101.4240036  51.2770004  92.1740036
 101.0670013  50.2949982  92.5520020 100.5510025  51.9620018  92.1230011
 102.0080032  51.1049995  90.7610016 102.9800034  50.5709991  90.8430023
 102.2160034  52.1119995  90.3430023 101.1129990  50.3300018  89.7809982
 100.9160004  49.3180008  90.1959991 100.1389999  50.8540001  89.6770020
 101.7519989  50.1870003  88.3889999 101.7979965  51.1930008  87.9209976
 102.7939987  49.8180008  88.5019989 100.9970016  49.2369995  87.4449997
  99.9469986  49.5870018  87.3489990 100.9700012  48.2179985  87.8870010
 101.6119995  49.1699982  86.0390015 101.6689987  50.2029991  85.6350021
 102.6520004  48.7869987  86.1169968 100.8270035  48.3079987  85.0510025
 101.3379974  48.2849998  84.0650024 100.7330017  47.2659988  85.4229965
  99.8069992  48.7260017  84.9049988  96.7429962  52.1710014  98.1009979
  97.1269989  53.2509995  97.6640015  96.0709991  51.1300011  97.1969986
  96.1930008  50.1240005  97.6529999  94.9869995  51.3650017  97.1330032
  96.6910019  51.1119995  95.7720032  97.7770004  50.9090004  95.8899994
  96.4240036  52.3619995  95.1149979  97.4169998  52.8269997  94.3499985
  98.5339966  52.3370018  94.2610016  97.0650024  54.2330017  93.8590012
  97.9919968  54.7130013  93.4800034  96.7009964  54.8110008  94.7350006
  95.9899979  54.2060013  92.7590027  95.4120026  55.1500015  92.8570023
  95.2799988  53.3650017  92.9059982  96.5390015  54.1529999  91.3330002
  96.8089981  53.1119995  91.0510025  97.4680023  54.7610016  91.2829971
  95.5599976  54.7509995  90.3160019  95.2170029  55.7350006  90.7009964
  94.6660004  54.0999985  90.2099991  96.1869965  54.9939995  88.9400024
  96.3030014  54.0299988  88.4000015  97.1959991  55.4430008  89.0650024
  95.3529968  55.9459991  88.0859985  95.3190002  56.9280014  88.6060028
  94.3140030  55.5629997  87.9990005  95.9089966  56.1790009  86.6809998
  96.9670029  56.5079994  86.7669983  95.3190002  57.0099983  86.2379990
  95.8539963  54.9570007  85.7600021  94.9010010  54.4230003  85.9649963
  96.6839981  54.2630005  86.0110016  95.8939972  55.2820015  84.2590027
  95.8249969  54.3199997  83.7080002  96.8659973  55.7560005  84.0019989
  94.7539978  56.2019997  83.8010025  93.8300018  55.8800011  84.3270035
  94.9840012  57.2369995  84.1320038  94.4970016  56.2039986  82.2990036
  93.6439972  56.8730011  82.0559998  95.4020004  56.5660019  81.7649994
  94.2630005  55.1769981  81.9459991  96.0749969  49.9720001  94.9100037
  94.9759979  50.1259995  94.8659973  96.2620010  49.0029984  95.4209976
  96.6220016  49.8989983  93.4690018  97.7200012  49.7330017  93.5070038
  96.4449997  50.8800011  92.9800034  95.9759979  48.8289986  92.5749969
  94.8889999  49.0419998  92.4860001  96.0899963  47.8339996  93.0569992
  96.5849991  48.7700005  91.1559982  96.0979996  47.9449997  90.5940018
  97.6669998  48.5330009  91.2389984  96.4240036  50.0709991  90.3489990
  95.3430023  50.3100014  90.2679977  96.9110031  50.9059982  90.8970032
  97.0319977  50.0379982  88.9359970  96.6009979  49.1899986  88.3629990
  98.1299973  49.8860016  89.0100021  96.7620010  51.3460007  88.1750031
  97.1760025  52.1910019  88.7659988  95.6620026  51.4889984  88.1110001
  97.3259964  51.4150009  86.7490005  97.3730011  50.3950005  86.3119965
  96.6169968  52.0050011  86.1289978  98.6940002  52.1040001  86.6610031
  98.5810013  53.1629982  86.9789963  99.3850021  51.6150017  87.3799973
  99.3399963  52.0639992  85.2659988  99.3359985  51.0120010  84.9079971
 100.4010010  52.3750000  85.3750000  98.6900024  52.9620018  84.2170029
  97.6110001  52.7190018  84.1080017  98.7710037  54.0270004  84.5220032
  99.1869965  52.8380013  83.2310028  92.9369965  54.7529984  96.0709991
  91.9329987  55.1020012  96.3960037  93.3050003  53.6170006  96.8509979
  93.0940018  53.6669998  97.7860031  92.8860016  54.3440018  94.5839996
  93.9039993  53.9720001  94.3420029  92.7070007  55.2470016  93.9629974
  91.8939972  53.2509995  94.1559982  90.8509979  53.6199989  94.2580032
  92.0230026  52.3660011  94.8150024  92.1669998  52.8300018  92.7030029
  93.2320023  52.5219994  92.6330032  92.0370026  53.7140007  92.0429993
  91.3040009  51.6720009  92.1750031  90.2529984  52.0139999  92.0640030
  91.3170013  50.8489990  92.9209976  91.8010025  51.0960007  90.8330002
  92.8539963  50.7630005  90.9580002  91.1910019  50.2029991  90.5790024
  91.7310028  52.0769997  89.6510010  92.2200012  53.0340004  89.9300003
  90.6650009  52.2890015  89.4229965  92.4100037  51.5600014  88.3740005
  91.9530029  50.5909996  88.0780029  93.4850006  51.3810005  88.5869980
  92.2959976  52.5330009  87.1910019  91.2279968  52.5979996  86.8909988
  92.6129990  53.5470009  87.5149994  93.1500015  52.1279984  85.9840012
  94.2109985  52.1459999  86.3150024  92.9110031  51.0830002  85.6920013
  93.0350037  53.0439987  84.7570038  92.9130020  54.0890007  85.1129990
  94.0059967  52.9990005  84.2180023  91.9369965  52.7010002  83.7559967
  91.8450012  53.5019989  82.9909973  92.1959991  51.7529984  83.2379990
  90.9639969  52.5750008  84.2770004  96.5830002  59.0019989  99.5299988
  97.6100006  58.5079994 100.0019989  96.6370010  60.2509995  98.6650009
  97.1800003  61.0569992  99.2040024  95.5999985  60.5999985  98.4720001
  97.3259964  59.8889999  97.3359985  97.1910019  58.8089981  97.1149979
  98.7180023  60.1819992  97.4199982  99.2369995  59.9070015  96.6610031
  96.7129974  60.6629982  96.1559982  97.0080032  61.7340012  96.1910019
  95.6080017  60.6189995  96.2689972  97.0469971  60.0540009  94.7850037
  96.8450012  58.9620018  94.8300018  98.1230011  60.1889992  94.5429993
  96.1790009  60.6529999  93.6770020  96.4830017  61.7019997  93.4720001
  95.1320038  60.6749992  94.0490036  96.1719971  59.8370018  92.3809967
  95.3239975  60.1899986  91.7559967  95.9800034  58.7700005  92.6220016
  97.4499969  59.9490013  91.5419998  97.5899963  61.0099983  91.2429962
  98.3320007  59.6399994  92.1419983  97.3600006  59.0760002  90.2860031
  96.3720016  59.2509995  89.8089981  97.3970032  58.0050011  90.5810013
  98.4469986  59.3450012  89.2379990  98.4130020  60.4169998  88.9499969
  99.4499969  59.1290016  89.6630020  98.2249985  58.4790001  87.9960022
  98.4140015  57.4160004  88.2570038  97.1549988  58.5540009  87.7070007
  99.0619965  58.8479996  86.7669983  98.9150009  59.9230003  86.5289993
 100.1370010  58.6819992  86.9929962  98.6660004  58.0120010  85.5449982
  98.8710022  56.9449997  85.7789993  97.5699997  58.1110001  85.3960037
  99.3529968  58.3750000  84.2440033  99.0500031  57.6689987  83.4410019
  99.0660019  59.4020004  83.9319992 100.4580002  58.3339996  84.3529968
 100.2990036  52.1570015 106.5299988 101.3720016  52.3339996 107.1760025
  99.9100037  51.0620003 106.0299988  99.1750031  53.2649994 106.7139969
  98.7969971  55.5530014 107.3570023  98.0690002  55.6240005 106.5210037
  99.7829971  54.5559998 107.0049973  98.2639999  52.8230019 107.8789978
  98.9160004  52.5649986 108.7399979  97.7330017  51.8930016 107.5810013
  97.2789993  53.8549995 108.3320007  96.5680008  54.0289993 107.4960022
  96.5820007  53.3619995 109.4909973  97.9929962  55.1650009 108.6039963
  97.2170029  55.9459991 108.7519989  98.7979965  55.1199989 109.7900009
  98.2239990  54.9780006 110.5459976  99.4629974  56.9230003 107.4800034
 100.1819992  56.8950005 108.3270035  98.4789963  57.9440002 107.7379990
  98.8830032  58.7579994 107.4300003 100.2200012  57.2770004 106.2050018
 100.9530029  56.4790001 105.9599991  99.5039978  57.3380013 105.3570023
 100.9240036  58.5289993 106.3290024 101.7740021  58.3429985 106.7330017
  94.7220001  54.9319992 109.1969986  94.0019989  55.1940002 108.1949997
  95.0289993  55.7270012 110.1309967  95.1610031  53.4319992 109.4100037
  94.9550018  51.1739998 108.5839996  96.0579987  51.0719986 108.6750031
  94.6419983  52.5699997 108.3580017  94.6699982  52.9389992 110.7860031
  93.5749969  53.1199989 110.8379974  95.1409988  53.5519981 111.5839996
  94.9369965  51.4930000 111.0339966  96.0350037  51.3279991 111.0459976
  94.4229965  51.1269989 112.3150024  95.0920029  51.2630005 112.9899979
  94.3639984  50.6510010 109.9010010  94.7170029  49.6090012 110.0579987
  92.9300003  50.6279984 109.8720016  92.6080017  50.3250008 110.7239990
  94.5459976  50.3580017 107.3600006  93.4530029  50.4830017 107.2050018
  94.8410034  48.9599991 107.5709991  94.0149994  48.5299988 107.8010025
  95.2740021  50.8370018 106.1080017  95.1350021  51.9309998 105.9749985
  96.3639984  50.6599998 106.2249985  94.8079987  50.1529999 104.9240036
  94.1989975  50.7410011 104.4720001  73.0390015 123.6529999 104.7760010
  74.3059998 124.8580017 105.9329987  73.3789978 124.7089996 104.8359985
  72.4729996 125.3290024 105.0049973  73.9980011 125.1139984 103.4970016
  75.0540009 124.1890030 103.1920013  74.4290009 126.1309967 103.6210022
  75.8079987 124.6240005 102.0520020  76.0820007 125.6880035 102.2149963
  77.0260010 123.9240036 101.8310013  77.2109985 122.6750031 102.5279999
  76.8190002 122.7170029 103.5670013  78.3059998 122.5289993 102.6399994
  72.9980011 125.1559982 102.3270035  72.5090027 124.1600037 102.2669983
  72.0630035 126.2089996 102.6080017  70.4120026 126.0059967 102.6770020
  69.8290024 127.3769989 103.0360031  70.0849991 124.9850006 103.7730026
  69.9089966 125.5370026 101.3160019  73.7149963 125.4380035 100.9970016
  72.7630005 125.2799988  99.9270020  74.0759964 126.4850006 101.0889969
  72.8750000 126.1419983  98.9100037  73.6780014 127.0640030  98.8590012
  72.1399994 125.6350021  97.6829987  72.2529984 124.5319977  97.6210022
  72.6149979 126.0910034  96.7890015  74.9729996 124.5739975 100.7839966
  74.6429977 123.5199966 100.6640015  75.7720032 124.9430008  99.6029968
  76.5579987 125.5360031  99.7600021  77.1640015 121.3369980 100.3499985
  76.7539978 122.2259979  99.8239975  78.5930023 121.3960037 100.2519989
  79.0059967 120.5999985 100.5940018  76.6869965 121.4300003 101.8040009
  77.1080017 120.5550003 102.3440018  75.2519989 121.3310013 101.9400024
  74.6640015 120.1979980 101.2570038  73.5650024 120.3619995 101.2600021
  74.9660034 118.9469986 101.8649979  74.6630020 119.1849976 104.4189987
  72.6630020 118.5459976 102.9749985  74.5479965 116.9130020 103.3170013
  74.1729965 118.3919983 103.2070007  76.5920029 120.0820007  99.7119980
  76.8899994 119.2429962 100.3769989  77.1259995 119.6920013  98.4420013
  77.1159973 120.5739975  97.4499969  76.5199966 121.6340027  97.4359970
  77.8870010 119.9919968  96.2740021  77.1760025 119.7990036  95.4430008
  78.3420029 119.0250015  96.5780029  75.0770035 120.1979980  99.7839966
  74.8389969 121.2099991  99.3919983  74.3339996 119.2070007  99.0149994
  74.6449966 118.2620010  99.0810013  70.6780014 126.0670013  97.8030014
  70.3069992 125.7310028  98.7949982  69.8870010 125.4619980  96.7659988
  69.8099976 124.1360016  96.8130035  70.0579987 123.4410019  97.7890015
  69.1220016 123.6029968  95.5530014  68.3679962 124.3410034  95.2060013
  68.5970001 122.6640015  95.8300018  70.1529999 123.3190002  94.4420013
  70.9440002 122.6429977  94.8310013  70.6370010 124.2770004  94.1539993
  69.5220032 122.6790009  93.1979980  68.6790009 123.3190002  92.8610001
  69.1019974 121.6890030  93.4769974  70.4850006 122.4919968  92.0090027
  69.9130020 121.9980011  91.1940002  71.3170013 121.8119965  92.2939987
  71.0759964 123.8089981  91.4720001  71.8799973 124.1389999  92.1630020
  70.2860031 124.5899963  91.4830017  71.6480026 123.7369995  90.0429993
  72.4130020 122.9339981  89.9840012  72.1600037 124.7030029  89.8450012
  70.5879974 123.5309982  88.9449997  69.7649994 124.2610016  89.1029968
  70.1620026 122.5100021  89.0429993  71.1220016 123.7099991  87.5139999
  71.9899979 123.0329971  87.3659973  71.4899979 124.7509995  87.3909988
  70.0790024 123.4130020  86.4199982  69.2180023 124.1060028  86.5230026
  69.7070007 122.3779984  86.5800018  70.6429977 123.5059967  84.9919968
  71.6080017 122.9550018  84.9749985  70.8679962 124.5640030  84.7379990
  69.7379990 122.8899994  83.9089966  68.9010010 123.5800018  83.6709976
  69.3030014 121.9570007  84.3270035  70.4879990 122.5039978  82.6220016
  71.4329987 121.9980011  82.9169998  69.8850021 121.7549973  82.0650024
  70.8170013 123.6569977  81.6809998  71.4520035 123.3040009  80.8410034
  71.3659973 124.4540024  82.2259979  69.8889999 124.1009979  81.2600021
  70.5149994 127.6159973  97.7610016  71.3840027 128.1000061  98.2559967
  69.6210022 127.8539963  98.3759995  70.2929993 128.2810059  96.3830032
  70.3069992 129.3849945  96.5130005  69.2710037 128.0119934  96.0380020
  71.2610016 127.9029999  95.2490005  71.2450027 126.8010025  95.1080017
  72.3020020 128.1950073  95.5009995  70.8290024 128.5429993  93.9229965
  70.9800034 129.6430054  93.9649963  69.7399979 128.3609924  93.8020020
  71.5220032 127.9759979  92.6770020  72.6009979 128.2409973  92.6859970
  71.4440002 126.8669968  92.6869965  70.8649979 128.5030060  91.3939972
  70.9449997 129.6109924  91.3850021  69.7870026 128.2380066  91.4130020
  71.4779968 127.9759979  90.0930023  72.5429993 128.2890015  90.0479965
  71.4499969 126.8649979  90.0869980  70.7470016 128.5090027  88.8509979
  69.6969986 128.1479950  88.8610001  70.7300034 129.6190033  88.8970032
  71.4160004 128.0899963  87.5390015  71.4629974 126.9810028  87.4879990
  72.4619980 128.4629974  87.5490036  70.7259979 128.6250000  86.2789993
  69.6839981 128.2400055  86.2399979  70.6689987 129.7330017  86.3499985
  71.4400024 128.2599945  84.9810028  72.4960022 128.6049957  85.0100021
  70.9369965 128.7380066  84.1139984  71.4349976 127.1589966  84.8339996
  75.4899979 124.5329971  98.3470001  74.5500031 123.7720032  98.1309967
  76.3870010 125.0810013  97.2220001  76.7350006 126.0950012  97.5110016
  77.2679977 124.4130020  97.1070023  75.6259995 125.1880035  95.8740005
  74.7529984 125.8550034  96.0380020  75.2679977 123.8759995  95.4390030
  74.1070023 123.7710037  94.8109970  73.2500000 124.6399994  94.7249985
  73.9140015 122.3140030  94.3789978  72.9089966 122.2070007  93.9179993
  73.9599991 121.6740036  95.2860031  75.0090027 121.9089966  93.3809967
  75.0449982 120.8000031  93.3239975  76.0039978 122.2460022  93.7419968
  74.7809982 122.4599991  91.9720001  74.6699982 123.5650024  92.0090027
  73.8310013 122.0380020  91.5810013  75.9209976 122.1090012  91.0080032
  76.1709976 121.0339966  91.1350021  76.8270035 122.6979980  91.2639999
  75.5569992 122.3259964  89.5350037  75.4739990 123.4169998  89.3430023
  74.5640030 121.8669968  89.3410034  76.5709991 121.6969986  88.5709991
  76.6969986 120.6279984  88.8460007  77.5530014 122.2009964  88.6930008
  76.1569977 121.7710037  87.0950012  76.0979996 122.8359985  86.7839966
  75.1439972 121.3310013  86.9749985  77.1399994 121.0419998  86.1660004
  77.1320038 119.9570007  86.4029999  78.1620026 121.4229965  86.3799973
  76.8720016 121.2360001  84.6630020  77.6019974 120.6139984  84.1029968
  77.0619965 122.3020020  84.4150009  75.4469986 120.8899994  84.2089996
  75.1630020 119.8939972  84.6119995  74.7580032 121.6409988  84.6520004
  75.2399979 120.8789978  82.6959991  75.5759964 121.8379974  82.2460022
  75.8010025 120.0449982  82.2229996  74.1600037 120.7450027  82.4720001
  76.5260010 125.7939987  94.7659988  77.2760010 125.0270004  94.4759979
  77.0960007 126.6490021  95.1859970  75.7929993 126.2740021  93.4980011
  75.0950012 127.0940018  93.7720032  75.1910019 125.4400024  93.0780029
  76.7519989 126.7600021  92.4010010  77.3830032 125.9069977  92.0709991
  77.4290009 127.5279999  92.8330002  76.0800018 127.3769989  91.1610031
  76.8889999 127.8069992  90.5329971  75.4110031 128.2129974  91.4580002
  75.2990036 126.3759995  90.2959976  75.9029999 125.4489975  90.1940002
  74.3470001 126.1039963  90.8010025  75.0100021 126.9049988  88.8830032
  75.9810028 127.1959991  88.4260025  74.3759995 127.8160019  88.9359970
  74.3489990 125.8690033  87.9649963  73.3130035 125.6610031  88.3079987
  74.9339981 124.9280014  88.0479965  74.3249969 126.2610016  86.4830017
  73.5540009 127.0429993  86.3170013  75.3099976 126.6989975  86.2129974
  74.0820007 125.0719986  85.5490036  74.9260025 124.3610001  85.6750031
  73.1439972 124.5540009  85.8420029  74.0029984 125.4570007  84.0699997
  74.8860016 126.0879974  83.8330002  73.0879974 126.0640030  83.8970032
  74.0130005 124.2600021  83.1309967  73.1859970 123.5630035  83.3820038
  74.9749985 123.7149963  83.2399979  73.9059982 124.5849991  82.0739975
  79.0110016 120.9260025  95.7839966  79.7539978 120.2870026  95.2620010
  79.6869965 121.5449982  96.8730011  79.2170029 122.2559967  97.3150024
  78.5680008 121.9789963  94.7460022  77.8010025 122.6529999  95.1839981
  78.0869980 121.4280014  93.9089966  79.7239990 122.8130035  94.1569977
  80.5780029 122.1279984  93.9629974  80.0589981 123.5530014  94.9150009
  79.3860016 123.5459976  92.8470001  78.4789963 124.1719971  92.9869995
  79.1460037 122.7860031  92.0719986  80.5350037 124.4489975  92.3590012
  81.4459991 123.8249969  92.2330017  80.7490005 125.2080002  93.1419983
  80.2760010 125.1940002  91.0319977  79.4540024 125.9290009  91.1719971
  81.1930008 125.7689972  90.7819977  79.9339981 124.2939987  89.8320007
  79.9140015 124.9309998  88.9219971  78.9160004 123.8710022  89.9779968
  80.9349976 123.1439972  89.6279984  80.8399963 122.4479980  90.4889984
  81.9599991 123.5739975  89.6419983  80.7639999 122.3369980  88.3330002
  81.4089966 121.4349976  88.4089966  79.7109985 121.9980011  88.2259979
  81.1859970 123.1039963  87.0709991  80.4929962 123.9589996  86.9199982
  82.2050018 123.5169983  87.2300034  81.2060013 122.2450027  85.8030014
  80.2170029 121.7490005  85.7060013  81.9749985 121.4540024  85.9319992
  81.4970016 123.0279999  84.5299988  81.5120010 122.3519974  83.6490021
  80.7109985 123.8000031  84.3870010  82.4800034 123.5400009  84.6119995
  73.2200012 119.5189972  98.3259964  72.8359985 120.6790009  98.1760025
  72.3909988 118.3750000  97.7819977  71.3899994 118.4270020  98.2600021
  72.8610001 117.3990021  98.0260010  72.2529984 118.5380020  96.2620010
  71.9029999 119.5609970  96.0080032  71.2689972 117.6039963  95.8290024
  70.9909973 117.6979980  94.9140015  73.5889969 118.2559967  95.5449982
  73.8990021 117.2279968  95.8270035  74.3659973 118.9530029  95.9260025
  73.5640030 118.3529968  94.0139999  73.4069977 119.4130020  93.7210007
  72.7139969 117.7620010  93.6100006  74.8529968 117.8180008  93.3679962
  74.8580017 116.7109985  93.4570007  75.7279968 118.2030029  93.9349976
  75.0299988 118.2070007  91.8919983  75.9100037 117.6740036  91.4710007
  75.2490005 119.2959976  91.8529968  73.8069992 117.9589996  90.9980011
  73.6179962 116.8690033  90.9020004  72.9110031 118.4219971  91.4649963
  73.9649963 118.5930023  89.6100006  74.8010025 118.1039963  89.0650024
  74.2289963 119.6650009  89.7389984  72.6859970 118.5120010  88.7699966
  72.4570007 117.4440002  88.5709991  71.8410034 118.9390030  89.3509979
  72.7959976 119.2649994  87.4400024  72.9160004 120.3519974  87.6380005
  73.7089996 118.9229965  86.9069977  71.5879974 119.0350037  86.5260010
  71.4680023 117.9420013  86.3700027  70.6689987 119.4130020  87.0230026
  71.7369995 119.7070007  85.1600037  71.7819977 120.8079987  85.2990036
  72.7030029 119.3939972  84.7080002  70.6110001 119.3619995  84.1959991
  70.7630005 119.8860016  83.2279968  70.5970001 118.2699966  83.9960022
  69.6269989 119.6660004  84.6129990  72.8170013 126.2969971 107.2799988
  71.7789993 126.2789993 108.0009995  73.3909988 127.3300018 106.8300018
  73.6490021 124.9489975 107.2030029  73.5019989 122.5820007 107.6250000
  74.1569977 122.4260025 106.7409973  72.7679977 123.8140030 107.4359970
  74.7720032 125.0240021 108.2649994  74.3069992 125.4029999 109.1999969
  75.5220032 125.7809982 107.9499969  75.4560013 123.7320023 108.6060028
  76.0719986 123.4270020 107.7330017  76.2969971 123.9660034 109.7480011
  74.4199982 122.6500015 108.8460007  74.9560013 121.6790009 108.9020004
  73.7030029 122.8239975 110.0759964  74.3170013 122.6930008 110.8010025
  72.5289993 121.4059982 107.6669998  71.8050003 121.5719986 108.4929962
  73.2149963 120.1610031 107.9020004  72.7109985 119.5029984 107.4160004
  71.7779999 121.3140030 106.3460007  71.2959976 122.2890015 106.1190033
  72.5029984 121.1139984 105.5279999  70.7720032 120.2809982 106.3580017
  70.0360031 120.5869980 106.8939972  77.3499985 121.7360001 109.8889999
  78.0410004 121.0019989 109.1289978  76.6529999 121.3410034 110.8669968
  77.5530014 123.2969971 109.7839966  78.6989975 125.0469971 108.5739975
  77.7450027 125.6100006 108.4970016  78.3870010 123.6340027 108.6429977
  78.1819992 123.8199997 111.0859985  79.1100006 123.2389984 111.2770004
  77.4919968 123.6220016 111.9339981  78.5189972 125.2730026 111.0309982
  77.5869980 125.8590012 110.8840027  79.0989990 125.6709976 112.2720032
  78.4089966 125.9140015 112.8939972  79.4179993 125.5490036 109.8349991
  79.5339966 126.6510010 109.7539978  80.7279968 124.9779968 109.9700012
  81.1320038 125.3209991 110.7699966  79.4810028 125.3219986 107.2919998
  80.4390030 124.7610016 107.3489990  79.7620010 126.7310028 107.1640015
  80.6859970 126.8619995 107.3899994  78.7259979 124.8430023 106.0559998
  78.4199982 123.7829971 106.1849976  77.8000031 125.4440002 105.9329987
  79.5400009 124.9420013 104.8659973  78.9420013 124.9079971 104.1159973
  85.5120010  46.6399994 104.6770020  84.5319977  48.1339989 105.7740021
  84.5329971  47.1650009 104.7060013  83.7330017  46.4119987 104.8700027
  84.2760010  47.8240013 103.3570023  85.3700027  48.7220001 103.1110001
  83.3349991  48.4090004 103.4319992  85.0530014  49.6269989 102.0479965
  84.0770035  50.1059990 102.2779999  85.9759979  50.6829987 101.8050003
  87.1220016  50.7760010 102.6600037  86.9260025  50.3670006 103.6750031
  87.3330002  51.8559990 102.8119965  84.1679993  46.8680000 102.1549988
  85.1409988  46.3370018 102.0739975  83.0660019  45.9529991 102.2939987
  83.1920013  44.3370018 102.7009964  82.9570007  44.1739998 104.2060013
  84.5599976  43.8069992 102.2760010  82.0520020  43.6349983 101.9580002
  83.9649963  47.6889992 100.8700027  84.1060028  46.7830009  99.7669983
  82.9449997  48.1230011 100.9410019  83.3639984  47.0070000  98.6930008
  82.4720001  47.8400002  98.5960007  83.8550034  46.1529999  97.5449982
  84.9550018  46.2830009  97.4479980  83.3740005  46.5120010  96.6110001
  84.9319992  48.8790016 100.7330017  85.9400024  48.4620018 100.5230026
  84.5920029  49.8230019  99.6610031  84.0749969  50.6279984  99.9400024
  88.6110001  50.6619987 100.6009979  87.7460022  50.3619995  99.9710007
  88.6940002  52.0900002 100.5559998  88.5179977  52.4049988  99.6660004
  88.3619995  50.1510010 102.0149994  89.2269974  50.4739990 102.6320038
  88.3069992  48.7039986 102.0719986  89.3929977  48.0060005 101.4199982
  89.0670013  46.9510002 101.2969971  90.5770035  48.0519981 102.1819992
  90.1839981  46.8580017 104.4440002  90.9189987  45.5289993 102.4390030
  92.5260010  47.1010017 103.5240021  91.0540009  46.8450012 103.1940002
  89.8519974  49.9930000 100.0770035  90.6490021  50.1850014 100.8270035
  90.3550034  50.5620003  98.8779984  89.5739975  50.5820007  97.8089981
  88.6679993  49.8050003  97.5589981  90.1490021  51.6080017  96.8529968
  90.4599991  51.0830002  95.9240036  91.0459976  52.0750008  97.3119965
  89.6200027  48.5159988 100.0240021  88.6389999  48.3940010  99.5159988
  90.6330032  47.7999992  99.2789993  91.5719986  48.0919991  99.4400024
  83.4609985  44.7000008  97.8320007  83.7779999  44.4350014  98.8629990
  84.0979996  43.8320007  96.8870010  85.4089966  43.6930008  97.0490036
  86.0510025  44.0509987  98.0250015  86.0210037  43.1230011  95.7720032
  85.4059982  42.2570000  95.4449997  87.0459976  42.7639999  96.0070038
  86.0650024  44.1959991  94.6650009  86.7600021  45.0130005  94.9530029
  85.0520020  44.6389999  94.5530014  86.4850006  43.6139984  93.3109970
  85.7829971  42.7929993  93.0520020  87.5000000  43.1699982  93.3970032
  86.4729996  44.6300011  92.1569977  86.7610016  44.0870018  91.2320023
  87.2369995  45.4160004  92.3339996  85.1060028  45.3030014  91.9440002
  84.9609985  46.0610008  92.7429962  84.2979965  44.5470009  92.0490036
  84.9509964  45.9860001  90.5780029  85.8460007  46.6110001  90.3730011
  84.0680008  46.6580009  90.6139984  84.7350006  44.9939995  89.4260025
  83.7799988  44.4550018  89.5999985  85.5569992  44.2470016  89.4140015
  84.6770020  45.6720009  88.0540009  85.6389999  46.1940002  87.8629990
  83.8710022  46.4370003  88.0759964  84.3980026  44.6930008  86.9079971
  83.3929977  44.2449989  87.0599976  85.1480026  43.8750000  86.9380035
  84.4580002  45.3549995  85.5270004  85.4690018  45.7960014  85.3949966
  83.7340012  46.1969986  85.4909973  84.1760025  44.3919983  84.3629990
  83.0830002  44.1910019  84.3349991  84.7009964  43.4309998  84.5490036
  84.6240005  44.9169998  82.9889984  85.7320023  44.8590012  82.9339981
  84.2129974  44.2449989  82.2060013  84.2139969  46.3510017  82.6809998
  84.4410019  46.6080017  81.6240005  84.7570038  47.0600014  83.3420029
  83.1240005  46.4879990  82.8489990  81.9240036  44.4799995  97.7669983
  81.3970032  45.3860016  98.1350021  81.6949997  43.6599998  98.4810028
  81.3229980  44.0610008  96.4049988  80.2399979  43.8600006  96.5510025
  81.7900009  43.1030006  96.0889969  81.4749985  45.0730019  95.2600021
  82.5530014  45.2830009  95.0950012  80.9759979  46.0279999  95.5319977
  80.9020004  44.5330009  93.9420013  79.8199997  44.3160019  94.0670013
  81.4150009  43.5730019  93.7160034  81.0920029  45.4770012  92.7450027
  80.4769974  46.3909988  92.8960037  82.1569977  45.7900009  92.6940002
  80.7099991  44.8160019  91.4110031  79.6630020  44.4490013  91.4710007
  81.3700027  43.9370003  91.2519989  80.8470001  45.7500000  90.2009964
  80.1449966  46.6049995  90.3099976  81.8769989  46.1650009  90.1780014
  80.5920029  45.0390015  88.8619995  81.3170013  44.2019997  88.7720032
  79.5660019  44.6110001  88.8570023  80.7559967  45.9560013  87.6439972
  81.7590027  46.4319992  87.6890030  80.0039978  46.7719994  87.6880035
  80.6309967  45.2400017  86.2949982  81.4110031  44.4510002  86.2279968
  79.6389999  44.7430000  86.2369995  80.7870026  46.1790009  85.1060028
  79.9800034  46.9420013  85.1320038  81.7630005  46.7060013  85.1589966
  80.7369995  45.6250000  84.1449966  85.0070038  49.7340012  98.3840027
  85.6839981  48.7879982  97.9899979  84.5759964  50.8689995  97.4550018
  83.7450027  51.4280014  97.9349976  85.4319992  51.5600014  97.2979965
  84.0899963  50.3009987  96.1019974  83.3960037  49.4580002  96.3069992
  85.2549973  49.9199982  95.3550034  85.1880035  48.7589989  94.7070007
  84.2050018  48.0289993  94.6699982  86.6190033  48.2519989  94.4670029
  86.5469971  47.2130013  94.0790024  87.1360016  48.2270012  95.4499969
  87.4010010  49.1250000  93.4700012  88.4759979  48.8549995  93.5490036
  87.3079987  50.2010002  93.7300034  86.9599991  48.8899994  92.0210037
  85.9020004  49.2000008  91.8909988  87.0240021  47.7980003  91.8249969
  87.8489990  49.6090012  90.9970016  88.9100037  49.3979988  91.2500000
  87.6999969  50.7080002  91.0619965  87.6220016  49.1409988  89.5510025
  86.6279984  49.4860001  89.1910019  87.6240005  48.0299988  89.5339966
  88.7220001  49.6370010  88.6029968  89.7060013  49.3829994  89.0520020
  88.6760025  50.7439995  88.5230026  88.6839981  49.0270004  87.1959991
  87.8020020  49.4239998  86.6510010  88.5780029  47.9239998  87.2730026
  89.9580002  49.3390007  86.4010010  90.8219986  48.8530006  86.9020004
  90.1309967  50.4360008  86.4250031  89.9059982  48.8950005  84.9380035
  89.0820007  49.4539986  84.4449997  89.6930008  47.8059998  84.8750000
  91.2040024  49.1940002  84.1910019  91.4820023  50.2420006  84.4339981
  92.0100021  48.5480003  84.5999985  91.1370010  49.0439987  82.6750031
  90.3740005  49.7360001  82.2600021  92.1210022  49.2879982  82.2210007
  90.8590012  48.0040016  82.4000015  83.3030014  51.3769989  95.3079987
  84.0029984  52.1870003  95.0120010  82.5380020  51.8230019  95.9789963
  82.5790024  50.8460007  94.0589981  81.8330002  50.0820007  94.3659973
  83.3219986  50.3460007  93.4020004  81.8769989  51.9539986  93.2580032
  82.6569977  52.6409988  92.8649979  81.2170029  52.5410004  93.9329987
  81.0400009  51.4440002  92.0709991  80.7330017  52.3190002  91.4599991
  80.1139984  50.9570007  92.4469986  81.7929993  50.4510002  91.1760025
  82.8180008  50.8460007  91.0130005  81.8880005  49.4760017  91.6979980
  81.1549988  50.2309990  89.7969971  81.0989990  51.2200012  89.2929993
  80.1220016  49.8330002  89.8939972  82.0049973  49.2939987  88.9280014
  81.8259964  48.2330017  89.2030029  83.0670013  49.5200005  89.1610031
  81.8349991  49.4869995  87.4150009  80.9209976  48.9650002  87.0589981
  81.7200012  50.5730019  87.2089996  83.0699997  49.0009995  86.6460037
  83.9570007  49.4650002  87.1269989  83.1600037  47.8979988  86.7429962
  83.0940018  49.3689995  85.1620026  82.5090027  50.3009987  85.0100021
  82.5879974  48.5620003  84.5889969  84.4940033  49.5849991  84.6019974
  84.9899979  50.4430008  85.1019974  85.1159973  48.6769981  84.7529984
  84.4410019  49.7929993  83.5120010  89.1100006  52.7029991  96.5579987
  89.6869965  53.5769997  96.1869965  88.3960037  53.0769997  97.7389984
  87.9010010  53.8969994  97.6800003  88.1449966  52.2700005  95.4339981
  87.4339981  51.4970016  95.7959976  88.7809982  51.8040009  94.6520004
  87.4079971  53.4399986  94.7679977  88.1389999  54.2709999  94.6729965
  86.5579987  53.7879982  95.3929977  86.9250031  53.1269989  93.3509979
  86.1979980  52.2859993  93.3529968  87.8010025  52.7999992  92.7509995
  86.2880020  54.3489990  92.6809998  86.7500000  55.2840004  93.0670013
  85.2099991  54.3759995  92.9499969  86.4319992  54.3499985  91.1559982
  86.2470016  53.3269997  90.7649994  85.6650009  55.0209999  90.7139969
  87.8160019  54.8320007  90.6999969  88.5989990  54.1209984  91.0400009
  88.0080032  55.8089981  91.1930008  87.9189987  55.0439987  89.1859970
  88.6770020  55.8300018  88.9800034  86.9479980  55.4379997  88.8170013
  88.3069992  53.7919998  88.3840027  89.4160004  53.7239990  88.3639984
  87.9130020  52.8889999  88.8960037  87.7679977  53.8199997  86.9479980
  86.6669998  53.6749992  86.9919968  87.9580002  54.8289986  86.5230026
  88.3600006  52.7869987  85.9850006  89.4469986  52.9889984  85.8750000
  88.2460022  51.7729988  86.4240036  87.7119980  52.8050003  84.6009979
  87.8450012  53.7989998  84.1240005  88.1650009  52.0289993  83.9469986
  86.6220016  52.6059990  84.6900024  90.3550034  47.0330009  98.2229996
  89.2639999  46.4840012  98.0950012  91.4580002  46.9080009  97.1869965
  92.3119965  46.3240013  97.5910034  91.8150024  47.9370003  96.9720001
  90.9049988  46.2840004  95.8919983  89.8600006  46.6230011  95.7289963
  90.9499969  44.8629990  95.9950027  90.4649963  44.3919983  95.3140030
  91.6930008  46.7350006  94.6439972  92.7170029  46.3040009  94.6490021
  91.7919998  47.8400002  94.6989975  90.9729996  46.4119987  93.3209991
  89.8980026  46.6710014  93.4339981  91.0370026  45.3240013  93.1070023
  91.5289993  47.2130013  92.1350021  92.5930023  46.9560013  91.9499969
  91.4850006  48.2890015  92.4079971  90.7089996  47.0309982  90.8519974
  90.6959991  47.9959984  90.3020020  89.6549988  46.8030014  91.1190033
  91.2509995  45.9589996  89.8949966  91.7740021  45.1559982  90.4570007
  90.3809967  45.5009995  89.3779984  92.1539993  46.5589981  88.8059998
  93.0780029  46.9910011  89.2460022  91.5800018  47.3950005  88.3529968
  92.4970016  45.5769997  87.6770020  93.4599991  45.0639992  87.8889999
  91.6979980  44.8059998  87.6480026  92.5240021  46.2579994  86.3030014
  91.5630035  46.8009987  86.1780014  93.3410034  47.0099983  86.2860031
  92.6790009  45.3190002  85.0999985  93.7190018  44.9300003  85.0630035
  91.9940033  44.4519997  85.2160034  92.3659973  46.0099983  83.7679977
  91.3130035  46.3600006  83.8259964  93.0179977  46.9059982  83.6849976
  92.5309982  45.1720009  82.5059967  92.2220001  45.7529984  81.6110001
  93.5950012  44.8730011  82.3880005  91.9100037  44.2540016  82.5690002
  82.7099991  47.1090012 107.0670013  82.4609985  45.9510002 107.5080032
  81.8570023  47.9959984 106.7829971  84.2220001  47.5670013 107.0490036
  86.4779968  46.8849983 107.5329971  86.7969971  47.3829994 106.5930023
  85.1029968  46.4609985 107.3830032  84.3880005  48.7190018 108.0569992
  83.9400024  48.3989983 109.0210037  83.8020020  49.5909996 107.6969986
  85.8030014  49.1320000 108.3119965  86.1999969  49.5690002 107.3710022
  85.8180008  50.1090012 109.3649979  86.6389999  47.9140015 108.6539993
  87.7020035  48.2369995 108.6660004  86.3229980  47.3730011 109.9440002
  86.4670029  48.0519981 110.6070023  87.3619995  45.6520004 107.7089996
  87.0029984  45.0849991 108.5940018  88.7369995  46.0180016 107.9280014
  89.2470016  45.2970009 107.5520020  87.2740021  44.7610016 106.4769974
  86.2119980  44.5349998 106.2409973  87.6959991  45.3019981 105.6029968
  87.9919968  43.5250015 106.6610031  87.3769989  42.8769989 107.0139999
  88.0029984  51.0149994 108.6859970  88.4319992  51.4650002 107.5879974
  88.6859970  50.4399986 109.5790024  86.5009995  51.3240013 109.0699997
  84.4800034  52.4490013 108.3899994  83.9339981  51.5079994 108.6119995
  85.8349991  52.0929985 108.0279999  86.4380035  52.0849991 110.4089966
  87.0699997  52.9930000 110.3130035  86.8880005  51.4570007 111.2080002
  85.0559998  52.4910011 110.8010025  84.4380035  51.5820007 110.9580002
  85.1060028  53.2029991 112.0380020  84.9980011  52.5979996 112.7750015
  84.4120026  53.2919998 109.6750031  83.3430023  53.4370003 109.9400024
  85.0009995  54.5890007 109.4960022  84.9700012  55.0579987 110.3330002
  83.7539978  53.0960007 107.2089996  84.1930008  54.0999985 107.0289993
  82.3550034  53.2350006 107.5199966  81.9250031  53.3110008 106.6650009
  83.8939972  52.2760010 105.9270020  84.9680023  52.1549988 105.6669998
  83.4729996  51.2589989 106.0810013  83.2389984  52.9029999 104.8160019
  83.7870026  53.6629982 104.6060028  89.9789963 120.4779968 103.9079971
  89.4380035 118.8779984 105.1360016  90.1529999 119.3840027 103.9909973
  91.2450027 119.2500000 104.1419983  89.7659988 118.7030029 102.6770020
  88.3980026 119.0130005 102.3759995  89.8529968 117.6070023 102.8349991
  87.9179993 118.2050018 101.2919998  88.1360016 117.1350021 101.5000000
  86.5339966 118.3119965 101.0000000  85.6949997 118.8529968 102.0279999
  86.1559982 118.7829971 103.0360031  84.7679977 118.2409973 102.0650024
  90.6460037 119.0999985 101.4769974  90.5849991 120.2050018 101.3820038
  91.9789963 118.6360016 101.7379990  93.2979965 119.6350021 101.9690018
  94.0390015 119.0479965 103.1809998  92.8280029 121.0660019 102.2549973
  94.1539993 119.5419998 100.7020035  90.1279984 118.4950027 100.1660004
  90.8470001 119.1309967  99.0970001  90.3410034 117.4059982 100.2170029
  91.1179962 118.4020004  98.0139999  90.8820038 117.2070007  97.8840027
  91.5220032 119.3079987  96.8659973  90.8590012 120.1989975  96.8570023
  91.3779984 118.7480011  95.9169998  88.6090012 118.6269989 100.0059967
  88.3830032 119.7080002  99.8840027  88.0699997 117.9130020  98.8430023
  87.7340012 116.9909973  99.0159988  84.8140030 120.3929977 100.2259979
  85.6110001 119.9950027  99.5619965  83.6419983 119.5960007 100.0059967
  82.9010010 119.9069977 100.5299988  85.3190002 120.2880020 101.6729965
  84.4899979 120.5920029 102.3479996  86.4400024 121.1559982 101.9759979
  86.3130035 122.5149994 101.4909973  87.3450012 122.9229965 101.5360031
  85.4199982 123.2659988 102.3059998  86.9469986 124.2440033 104.1279984
  86.4530029 125.6009979 102.0419998  84.5970001 125.1819992 103.7149963
  85.8949966 124.6419983 103.0910034  84.5889969 121.8479996  99.8799973
  83.9140015 122.2649994 100.6589966  83.8860016 122.0960007  98.6650009
  84.3369980 121.5309982  97.5569992  85.4830017 121.1589966  97.3570023
  83.2450027 121.6510010  96.5130005  83.6320038 122.2330017  95.6500015
  82.3690033 122.1849976  96.9390030  85.9329987 122.5240021 100.0100021
  86.6600037 121.8560028  99.5019989  86.0510025 123.8209991  99.3550034
  85.2180023 124.3359985  99.1699982  92.9960022 119.6709976  97.0759964
  93.1159973 120.0510025  98.1139984  93.4199982 120.6750031  96.1419983
  92.8769989 121.8720016  96.2870026  92.2360001 122.2509995  97.2580032
  93.4499969 122.8170013  95.2269974  94.5569992 122.7239990  95.2379990
  93.1880035 123.8550034  95.5260010  92.9020004 122.5329971  93.8099976
  91.8099976 122.7369995  93.7829971  93.0540009 121.4619980  93.5559998
  93.6019974 123.3919983  92.7429962  94.6839981 123.1409988  92.7419968
  93.5100021 124.4619980  93.0279999  93.0609970 123.2190018  91.3089981
  93.5790024 123.9680023  90.6729965  91.9749985 123.4479980  91.2770004
  93.2880020 121.8089981  90.7289963  92.4349976 121.1770020  91.0569992
  94.2139969 121.3740005  91.1600037  93.4049988 121.7549973  89.1940002
  92.5810013 122.3619995  88.7610016  93.2910004 120.6999969  88.8649979
  94.7500000 122.2870026  88.6620026  95.5650024 121.6539993  89.0739975
  94.8880005 123.3209991  89.0439987  94.8990021 122.3270035  87.1289978
  95.7699966 122.9690018  86.8779984  94.0029984 122.8199997  86.6940002
  95.1320038 120.9520035  86.4800034  95.0049973 120.1549988  87.2429962
  96.1809998 120.8789978  86.1220016  94.1839981 120.6009979  85.3270035
  93.6320038 121.5049973  84.9950027  93.4209976 119.8820038  85.6949997
  94.9020004 119.9840012  84.1230011  95.3109970 118.9869995  84.3929977
  95.7730026 120.6279984  83.8759995  94.0270004 119.9219971  82.8679962
  93.4179993 120.8499985  82.8249969  94.7129974 119.9479980  81.9940033
  93.1389999 118.6910019  82.7509995  92.4720001 118.7799988  81.8669968
  92.5189972 118.5780029  83.6660004  93.7669983 117.7799988  82.6449966
  93.9309998 118.4400024  96.9339981  93.4430008 117.5370026  97.3590012
  94.8270035 118.6389999  97.5599976  94.4469986 118.1220016  95.5110016
  95.0479965 117.1890030  95.5589981  95.1279984 118.9380035  95.1869965
  93.3809967 117.9440002  94.4179993  92.8209991 118.8960037  94.2919998
  92.6520004 117.1589966  94.7149963  93.9960022 117.5960007  93.0579987
  94.4069977 116.5650024  93.0999985  94.8460007 118.2880020  92.8700027
  93.0250015 117.7060013  91.8750000  92.2030029 116.9670029  91.9860001
  92.5680008 118.7190018  91.8899994  93.7020035 117.5019989  90.5080032
  94.0879974 116.4629974  90.4329987  94.5770035 118.1839981  90.4479980
  92.7539978 117.8050003  89.3399963  91.9130020 117.0780029  89.3339996
  92.3249969 118.8130035  89.5250015  93.4160004 117.8440018  87.9580002
  92.8570023 118.5830002  87.3460007  94.4530029 118.2249985  88.0729980
  93.3759995 116.5009995  87.2060013  92.3050003 116.2060013  87.1709976
  93.9329987 115.7300034  87.7789993  93.9189987 116.5250015  85.7610016
  93.9769974 117.5859985  85.4380035  94.9509964 116.1129990  85.7659988
  93.1259995 115.7509995  84.7220001  93.7009964 115.6719971  83.7740021
  92.9010010 114.7279968  85.0910034  92.1569977 116.2450027  84.4970016
  87.9980011 118.4219971  97.5950012  88.3710022 119.5660019  97.3249969
  87.4349976 117.4680023  96.5459976  87.5979996 116.4300003  96.9059982
  86.3430023 117.6470032  96.4380035  88.1510010 117.6240005  95.1869965
  89.2429962 117.6699982  95.3860016  87.6500015 118.8160019  94.5569992
  88.5790024 119.5780029  93.9619980  89.7570038 119.2689972  93.8320007
  88.1740036 121.0670013  94.0500031  88.8720016 121.6370010  93.4010010
  88.3280029 121.3970032  95.0999985  86.7310028 121.3669968  93.6169968
  86.5609970 122.4599991  93.7119980  86.0210037 120.8489990  94.2969971
  86.4789963 120.9570007  92.1689987  86.2020035 119.8820038  92.1159973
  87.4420013 121.0749969  91.6289978  85.4459991 121.8170013  91.4240036
  85.5999985 122.8779984  91.7139969  84.4120026 121.5309982  91.7109985
  85.6409988 121.7229996  89.9069977  85.2929993 120.7350006  89.5370026
  86.7369995 121.7710037  89.7289963  85.0469971 122.8529968  89.0540009
  85.4700012 123.8150024  89.4130020  83.9430008 122.8899994  89.1729965
  85.4100037 122.6630020  87.5690002  84.7890015 121.8379974  87.1579971
  86.4670029 122.3259964  87.5210037  85.2710037 123.9079971  86.6719971
  86.0540009 124.6409988  86.9609985  84.2799988 124.3789978  86.8470001
  85.4020004 123.6139984  85.1610031  85.3140030 124.5660019  84.5950012
  84.5500031 122.9670029  84.8629990  86.6969986 122.8919983  84.7600021
  87.5690002 123.5250015  85.0299988  86.7570038 121.9660034  85.3710022
  86.8079987 122.4680023  83.2969971  85.9199982 121.8789978  82.9830017
  86.9169998 123.3550034  82.6370010  87.7099991 121.8310013  83.1689987
  87.8960037 116.3509979  94.3180008  86.8020020 116.2249985  94.1719971
  88.2460022 115.4879990  94.9260025  88.6139984 116.2839966  92.9540024
  89.6429977 116.6809998  93.0869980  88.0869980 116.9509964  92.2389984
  88.7170029 114.8659973  92.3619995  87.7050018 114.4879990  92.1029968
  89.1529999 114.1920013  93.1299973  89.6090012 114.7850037  91.1080017
  90.2549973 113.8830032  91.1689987  90.3010025 115.6539993  91.0960007
  88.8170013 114.7180023  89.7839966  88.3610001 113.7080002  89.7030029
  88.0019989 115.4720001  89.8330002  89.6859970 114.9929962  88.5439987
  90.5070038 114.2500000  88.4509964  90.1790009 115.9710007  88.7279968
  88.9499969 115.0970001  87.1880035  87.9580002 115.5810013  87.3099976
  88.7730026 114.0719986  86.7979965  89.7440033 115.8880005  86.1220016
  90.7549973 115.4329987  86.0439987  89.2480011 115.7649994  85.1360016
  89.8280029 117.3970032  86.3960037  88.7929993 117.7740021  86.2529984
  90.1340027 117.6080017  87.4430008  90.7289963 118.2300034  85.4860001
  90.5059967 117.9879990  84.4250031  91.7969971 117.9700012  85.6449966
  90.6080017 119.7330017  85.7020035  89.5559998 120.0759964  85.6019974
  90.9540024 119.9869995  86.7269974  91.2419968 120.2959976  84.9840012
  82.7949982 120.2539978  96.0589981  81.9079971 120.4089966  95.4079971
  82.3740005 119.4449997  97.1549988  83.0210037 119.2659988  97.8410034
  83.8320007 119.5220032  95.2009964  84.7600021 119.3099976  95.7730026
  84.0930023 120.2249985  94.3809967  83.3280029 118.2379990  94.5360031
  82.2979965 118.4219971  94.1640015  83.2819977 117.4189987  95.2860031
  84.2200012 117.8529968  93.3539963  85.2669983 117.7129974  93.6979980
  84.2180023 118.7099991  92.6460037  83.7389984 116.5920029  92.6360016
  82.6289978 116.6100006  92.5869980  84.0370026 115.6989975  93.2259979
  84.2600021 116.4660034  91.1959991  85.3710022 116.4919968  91.1869965
  83.9369965 115.4789963  90.8010025  83.7149963 117.5640030  90.2679977
  84.5179977 118.2959976  90.0360031  82.9229965 118.1179962  90.8180008
  83.0839996 117.0390015  88.9739990  82.4039993 116.1989975  89.2300034
  83.8779984 116.6500015  88.3000031  82.2710037 118.1210022  88.2500000
  81.5940018 118.5920029  88.9950027  82.9459991 118.9160004  87.8659973
  81.3990021 117.5770035  87.1129990  82.0510025 117.1869965  86.3030014
  80.7850037 116.7360001  87.5000000  80.4629974 118.6419983  86.5329971
  79.8759995 119.0960007  87.3600006  81.0849991 119.4430008  86.0820007
  79.5059967 118.1080017  85.4769974  78.8270035 118.9100037  85.1169968
  80.0800018 117.7099991  84.6129990  78.8809967 117.2880020  85.8909988
  87.2630005 124.2799988  98.9660034  88.3170013 123.7020035  99.2519989
  87.2870026 125.5319977  98.1070023  87.6989975 126.3779984  98.6969986
  86.2480011 125.7919998  97.8130035  88.1240005 125.2570038  96.8359985
  88.3600006 124.1760025  96.7389984  89.3470001 125.9810028  96.9120026
  89.9739990 125.7959976  96.2089996  87.3590012 125.6640015  95.5650024
  87.2320023 126.7669983  95.5400009  86.3460007 125.2139969  95.6399994
  87.9860001 125.1709976  94.2480011  88.2089996 124.0859985  94.3379974
  88.9359970 125.7129974  94.0490036  87.0090027 125.3769989  93.0899963
  86.8239975 126.4649963  92.9589996  86.0439987 124.9020004  93.3679962
  87.4319992 124.7689972  91.7490005  86.5220032 124.7779999  91.1110001
  87.7279968 123.7050018  91.8730011  88.5019989 125.5439987  90.9729996
  88.3870010 126.6230011  91.2119980  89.5199966 125.2279968  91.2880020
  88.3310013 125.4010010  89.4530029  87.3580017 125.8720016  89.1949997
  88.2600021 124.3290024  89.1709976  89.4339981 126.0729980  88.6240005
  89.7300034 127.0199966  89.1240005  90.3229980 125.4059982  88.5960007
  88.9649963 126.4000015  87.1999969  88.5630035 125.4720001  86.7379990
  88.1340027 127.1350021  87.2639999  90.0510025 126.9670029  86.2770004
  90.4250031 127.9280014  86.6930008  90.9000015 126.2509995  86.2399979
  89.5490036 127.1869965  84.8440018  89.0640030 126.2450027  84.5100021
  88.7720032 127.9810028  84.8499985  90.6360016 127.5390015  83.8359985
  91.4079971 126.7399979  83.8180008  90.2050018 127.6259995  82.8160019
  91.1299973 128.5000000  84.0960007  91.3330002 117.7910004 106.2389984
  92.5210037 118.1190033 106.5179977  90.9100037 116.6149979 106.0559998
  90.2239990 118.9179993 106.3339996  89.8529968 121.2490005 106.8059998
  89.1350021 121.2669983 105.9589996  90.8359985 120.2210007 106.5510025
  89.2689972 118.5619965 107.4919968  89.8899994 118.3270035 108.3820038
  88.7160034 117.6360016 107.2220001  88.3010025 119.6439972 107.8629990
  87.5989990 119.7760010 107.0130005  87.5910034 119.2529984 109.0500031
  89.0360031 120.9530029 108.0660019  88.2689972 121.7509995 108.1650009
  89.8369980 120.9609985 109.2549973  89.2580032 120.8499985 110.0139999
  90.5469971 122.6070023 106.8349991  91.3359985 122.5820007 107.6169968
  89.6179962 123.6610031 107.1539993  89.9980011 124.4489975 106.7590027
  91.1920013 122.9020004 105.4860001  91.8539963 122.0619965 105.1849976
  90.3990021 122.9850006 104.7109985  91.9580002 124.1240005 105.5210037
  92.8720016 123.8909988 105.6989975  85.6930008 120.7630005 108.6119995
  84.8840027 120.9010010 107.6539993  86.0149994 121.6520004 109.4520035
  86.1729965 119.2979965 108.9550018  86.0139999 116.9759979 108.3270035
  87.1169968 116.9079971 108.4349976  85.6729965 118.3410034 107.9830017
  85.7080002 118.9150009 110.3720016  84.6110001 119.0790024 110.4250031
  86.1740036 119.6029968 111.1090012  86.0070038 117.4980011 110.7330017
  87.1080017 117.3499985 110.7320023  85.5329971 117.2330017 112.0520020
  86.2149963 117.4459991 112.6940002  85.4219971 116.5619965 109.6809998
  85.7689972 115.5339966 109.9160004  83.9850006 116.5500031 109.6620026
  83.6630020 116.1930008 110.4929962  85.6370010 116.0439987 107.1780014
  84.5309982 116.0429993 107.0759964  86.0849991 114.7020035 107.4550018
  85.9710007 114.2249985 106.6309967  86.2470016 116.5029984 105.8550034
  85.9899979 117.5670013 105.6650009  87.3539963 116.4280014 105.8980026
  85.7539978 115.7099991 104.7570038  86.0999985 116.0879974 103.9449997
 106.2979965  62.5159988  64.1449966 107.0230026  61.3680000  64.8249969
 107.7460022  60.9609985  64.1340027 106.3000031  60.5919991  65.0319977
 105.1330032  62.9329987  64.9800034 105.4840012  63.1259995  65.9830017
 104.6549988  63.8160019  64.5830002 104.4069977  62.1349983  65.0410004
 107.2080002  63.6899986  63.9729996 106.6890030  64.5120010  63.5019989
 107.5599976  64.0189972  64.9400024 108.0640030  63.4319992  63.3670006
 105.7900009  62.0870018  62.8050003 105.2440033  62.8899994  62.3330002
 105.1240005  61.2420006  62.9010010 106.6039963  61.8089981  62.1510010
 107.7399979  61.6500015  66.1770020 108.4830017  62.4620018  66.0230026
 108.3209991  60.7470016  66.4639969 105.8740005  60.9189987  67.8659973
 105.5820007  59.8339996  66.8769989 104.6880035  61.6269989  68.4390030
 106.8389969  62.0289993  67.2180023 106.7539978  60.3330002  69.0790024
 106.5920029  58.9570007  69.4700012 107.2570038  58.7410011  70.3339996
 106.9029999  58.2789993  68.6470032 105.1340027  58.5620003  69.9000015
 104.4830017  58.7939987  69.0299988 104.7060013  59.3199997  71.0559998
 103.3820038  59.3030014  71.2259979 102.5690002  58.8580017  70.4179993
 103.0329971  59.9550018  72.5680008 103.0469971  61.0579987  72.4349976
 103.8119965  59.6650009  73.3050003 104.9810028  57.0149994  70.1119995
 105.3160019  56.5359993  69.1669998 103.9039993  56.7620010  70.2190018
 105.7740021  56.4889984  71.1940002 105.1709976  56.4630013  72.3980026
 104.0149994  56.7939987  72.6220016 106.1230011  55.8660011  73.4339981
 106.4950027  54.9010010  73.0279999 105.5479965  55.6599998  74.3629990
 101.6529999  59.4819984  73.0579987 101.6449966  58.3720016  73.1050034
 100.8880005  59.7900009  72.3140030 101.2580032  60.0299988  74.4359970
 100.2119980  59.7280006  74.6539993 101.2860031  61.1399994  74.4049988
 102.1510010  59.5309982  75.5839996 103.2060013  59.8019981  75.3629990
 102.0930023  58.4239998  75.6549988 101.7819977  60.1500015  76.9390030
 100.7979965  59.7729988  77.2900009 101.6819992  61.2449989  76.7799988
 102.8610001  59.9620018  78.0199966 102.7990036  60.8310013  78.7089996
 103.8629990  60.0040016  77.5410004 102.7710037  58.6879997  78.8799973
 103.7419968  58.5929985  79.4130020 102.6839981  57.8009987  78.2170029
 101.6360016  58.7439995  79.8769989 100.6869965  58.3110008  79.5279999
 101.6869965  59.2859993  81.1129990 100.7789993  59.2750015  81.7330017
 102.8840027  59.9500008  81.7539978 103.6090012  60.2739983  80.9769974
 103.4120026  59.2029991  82.3840027 102.6090012  61.1870003  82.6419983
 102.1389999  61.9850006  82.0289993 103.5859985  61.5740013  83.0039978
 101.7060013  60.9199982  83.8560028 102.1330032  60.1139984  84.4889984
 100.7379990  60.5489998  83.4589996 101.3870010  62.1570015  84.7119980
 100.5240021  61.9000015  85.3629990 101.0630035  62.9760017  84.0350037
 102.5360031  62.6609993  85.6080017 102.1809998  63.5620003  86.1520004
 103.3779984  62.9749985  84.9540024 103.0719986  61.6440010  86.6350021
 103.8909988  62.1209984  87.2149963 103.5049973  60.7840004  86.0820007
 102.0230026  61.0999985  87.6179962 101.2269974  60.5940018  87.0319977
 101.5540009  61.9519997  88.1559982 102.5780029  60.1049995  88.6389999
 103.3809967  60.5740013  89.2470016 103.0009995  59.2179985  88.1220016
 101.7710037  59.7560005  89.3190002 107.2809982  56.8380013  73.7009964
 107.7480011  57.1110001  72.7310028 108.0540009  56.3279991  74.3140030
 106.8229980  58.1080017  74.4300003 106.8860016  57.9370003  75.5260010
 105.7570038  58.3040009  74.1849976 107.6279984  59.3610001  74.0500031
 107.3889999  59.6199989  72.9970016 108.7119980  59.1220016  74.1019974
 107.3730011  60.5870018  74.9479980 107.8379974  61.4809990  74.4800034
 107.8980026  60.4029999  75.9100037 105.8880005  60.8769989  75.2389984
 105.4390030  59.9770012  75.7109985 105.3519974  61.0509987  74.2809982
 105.6179962  62.0589981  76.1940002 104.5319977  62.0419998  76.4250031
 105.8359985  63.0219994  75.6849976 106.3990021  61.9630013  77.5189972
 107.3300018  62.5660019  77.4789963 106.7060013  60.8989983  77.6070023
 105.5729980  62.3149986  78.7699966 104.5889969  61.8100014  78.6589966
 105.3690033  63.4049988  78.8389969 106.1650009  61.8110008  80.0989990
 105.3960037  61.9539986  80.8880005 107.0609970  62.4070015  80.3750000
 106.5299988  60.3240013  80.0240021 107.5279999  60.2089996  79.5490036
 105.7919998  59.8370018  79.3509979 106.4850006  59.5429993  81.3339996
 106.5189972  58.4720001  81.0429993 105.5179977  59.7019997  81.8570023
 107.6360016  59.7799988  82.3109970 107.3020020  60.5219994  83.0670013
 108.5260010  60.1899986  81.7870026 108.0260010  58.4710007  83.0059967
 108.7020035  57.8860016  82.3470001 107.1029968  57.8670006  83.1350021
 108.6589966  58.6539993  84.3710022 108.8330002  57.6669998  84.8499985
 107.9820023  59.2449989  85.0260010 109.6299973  59.1879997  84.2939987
 122.1279984  87.7180023  64.0490036 121.5199966  87.5139999  65.4229965
 122.0930023  86.7649994  65.9489975 120.5179977  87.1279984  65.3040009
 121.4260025  88.8229980  63.3289986 121.5169983  89.7350006  63.9000015
 121.8629990  88.9850006  62.3549995 120.3769989  88.6009979  63.2039986
 123.5630035  88.0920029  64.1910019 124.1169968  87.2829971  64.6439972
 123.9980011  88.3619995  63.2400017 123.6220016  88.9290009  64.8720016
 122.0410004  86.4710007  63.2330017 122.5110016  86.6200027  62.2719994
 121.0100021  86.1979980  63.0589981 122.5410004  85.6490021  63.7239990
 121.4560013  88.7519989  66.3600006 120.8889999  88.4810028  67.2770004
 120.8690033  89.5510025  65.8590012 123.6539993  88.4980011  67.7720032
 123.5070038  89.2060013  69.0820007 125.0469971  88.4140015  67.2350006
 122.7470016  89.2620010  66.6900024 123.0459976  86.9990005  67.8489990
 123.4069977  86.1529999  68.9540024 124.2509995  86.5709991  69.5439987
 123.7669983  85.1760025  68.5660019 122.2360001  85.8570023  69.9629974
 121.7870026  84.8960037  69.6320038 121.2310028  86.8919983  69.9029999
 120.0670013  86.6050034  70.4479980 119.7509995  85.5319977  70.9459991
 119.1350021  87.8160019  70.3330002 118.4290009  87.6100006  69.5009995
 119.7300034  88.7190018  70.0770035 122.7890015  85.6510010  71.4179993
 123.4629974  84.7679977  71.4020004 121.9400024  85.4189987  72.0960007
 123.5270004  86.8109970  71.8519974 123.6429977  87.0100021  73.1610031
 123.2300034  86.2590027  74.0319977 124.3710022  88.3460007  73.3619995
 123.7649994  89.1240005  72.8509979 125.3590012  88.2880020  72.8580017
 118.3539963  88.0449982  71.6449966 117.8290024  87.1060028  71.9229965
 117.5699997  88.8160019  71.4850006 119.2669983  88.4850006  72.7979965
 120.2149963  87.9059982  72.7610016 118.7779999  88.2440033  73.7659988
 119.5950012  89.9850006  72.7929993 118.7360001  90.5530014  73.2109985
 119.7340012  90.3330002  71.7470016 120.8690033  90.3470001  73.5739975
 120.8990021  91.4459991  73.7320023 121.7409973  90.0839996  72.9380035
 121.0690002  89.6370010  74.9260025 122.0479965  89.9970016  75.3079987
 121.1760025  88.5429993  74.7649994 119.9810028  89.8870010  75.9899979
 119.2409973  89.0599976  75.9309998 119.4520035  90.8259964  75.7190018
 120.5270004  90.0380020  77.3919983 120.6910019  91.0820007  77.6979980
 120.8750000  89.0709991  78.2630005 121.3000031  89.3720016  79.2320023
 120.8020020  87.5790024  78.0759964 119.8929977  87.3069992  77.4980011
 120.7070007  87.0859985  79.0680008 122.0270004  86.9739990  77.3560028
 122.0920029  87.4209976  76.3410034 121.8539963  85.8850021  77.2170029
 123.3909988  87.1750031  78.0469971 123.5619965  88.2630005  78.1920013
 124.1829987  86.8099976  77.3580017 123.5630035  86.4660034  79.4020004
 122.7649994  86.8140030  80.0920029 124.5380020  86.7809982  79.8310013
 123.5520020  84.9309998  79.3290024 124.3420029  84.6009979  78.6210022
 122.5699997  84.6029968  78.9250031 123.7750015  84.2279968  80.6809998
 124.7949982  84.4609985  81.0550003 123.7210007  83.1309967  80.5120010
 122.7460022  84.5999985  81.7580032 121.7369995  84.5660019  81.2949982
 122.9150009  85.6490021  82.0810013 122.7620010  83.6859970  82.9840012
 123.7620010  83.6989975  83.4680023 122.5339966  82.6409988  82.6819992
 122.0009995  84.0139999  83.7229996 124.5630035  88.7590027  74.8330002
 125.3330002  88.1149979  75.3099976 123.6169968  88.6119995  75.3960037
 124.9710007  90.2350006  74.9420013 124.2170029  90.8789978  74.4410019
 125.9309998  90.3560028  74.3960037 125.1890030  90.7320023  76.3779984
 125.9140015  91.5709991  76.3119965 125.6630020  89.9240036  76.9749985
 123.9359970  91.2450027  77.1139984 123.5630035  90.4489975  77.7939987
 123.1330032  91.4489975  76.3730011 124.1780014  92.5490036  77.8970032
 123.6210022  93.3769989  77.4069977 125.2570038  92.8000031  77.8239975
 123.8430023  92.5309982  79.3980026 124.1660004  93.5100021  79.8140030
 124.4449997  91.7460022  79.9049988 122.3560028  92.3339996  79.7289963
 122.1110001  91.2600021  79.5810013 121.7440033  92.9260025  79.0159988
 121.9850006  92.7539978  81.1640015 122.9029999  93.1449966  81.6529999
 121.2480011  93.5849991  81.1320038 121.4410019  91.6220016  82.0510025
 121.3980026  91.9840012  83.1009979 122.1640015  90.7789993  82.0339966
 120.0500031  91.0930023  81.6630020 119.9990005  90.9649963  80.5609970
 119.2860031  91.8450012  81.9560013 119.7050018  89.7389984  82.3130035
 120.3870010  88.9700012  81.8899994 118.6660004  89.4550018  82.0390015
 119.8460007  89.7129974  83.8430023 119.1729965  90.4710007  84.2969971
 120.8880005  89.9879990  84.1149979 119.5510025  88.3330002  84.4459991
 120.1149979  87.5709991  83.8679962 118.4690018  88.1119995  84.3259964
 119.9459991  88.2180023  85.9199982 121.0449982  88.3450012  86.0289993
 119.6620026  87.2249985  86.3270035 119.4479980  89.0080032  86.5210037
  80.7379990 109.2300034  62.9249992  80.4449997 108.4059982  64.1630020
  80.8229980 107.4069977  64.0039978  79.3730011 108.3209991  64.2679977
  80.2500000 108.5459976  61.6889992  79.1819992 108.3919983  61.7249985
  80.4690018 109.1500015  60.8209991  80.7330017 107.5889969  61.5589981
  80.0770035 110.5640030  63.0330009  79.0019989 110.4720001  62.9980011
  80.3430023 110.9860001  63.9910011  80.4039993 111.2279968  62.2459984
  82.2119980 109.4489975  62.8170013  82.5559998 109.9410019  63.7150002
  82.4489975 110.0699997  61.9659996  82.7369995 108.5100021  62.7249985
  81.0210037 108.9179993  65.5189972  82.1299973 108.8669968  65.4710007
  80.7020035 108.1930008  66.2979965  80.0329971 110.6760025  67.2549973
  80.1200027 112.1660004  67.3789978  80.7050018 109.8939972  68.3389969
  80.6320038 110.2610016  65.8229980  78.4759979 110.2549973  67.2089996
  77.8140030 110.1460037  65.9410019  78.2020035 109.2750015  65.3710022
  77.9899979 111.0510025  65.3199997  76.2610016 109.9209976  66.0569992
  75.8339996 110.0670013  65.0419998  75.6029968 110.8349991  66.9580002
  75.6299973 112.1210022  66.6190033  76.1790009 112.5979996  65.6360016
  74.7310028 112.9049988  67.5859985  74.4260025 112.2350006  68.4179993
  73.8239975 113.2149963  67.0230026  75.9140015 108.4329987  66.4449997
  76.0179977 107.8410034  65.5110016  74.8450012 108.3669968  66.7429962
  76.7929993 107.8509979  67.4369965  76.5540009 108.1760025  68.7089996
  75.5719986 108.7829971  69.1169968  77.6539993 107.5579987  69.5950012
  78.6429977 107.9150009  69.2340012  77.5960007 106.4560013  69.4660034
  75.4509964 114.1360016  68.1539993  74.7379990 114.6760025  68.8140030
  75.7480011 114.8310013  67.3399963  76.6809998 113.7399979  68.9800034
  77.5120010 113.4779968  68.2910004  76.4380035 112.8280029  69.5670013
  77.1309967 114.8270035  69.9639969  76.3030014 114.9990005  70.6849976
  77.3109970 115.7789993  69.4199982  78.3970032 114.4280014  70.7310028
  79.2519989 114.4589996  70.0220032  78.2959976 113.3779984  71.0820007
  78.7310028 115.3109970  71.9479980  78.6959991 116.3889999  71.6809998
  79.7839966 115.0759964  72.2129974  77.8870010 115.0059967  73.2119980
  78.5540009 115.1640015  74.0859985  77.6549988 113.9199982  73.1900024
  76.6429977 115.8389969  73.4189987  76.8440018 116.9120026  73.5589981
  75.3619995 115.4309998  73.4889984  74.5820007 116.1890030  73.6539993
  74.8280029 114.0240021  73.3730011  75.6370010 113.2620010  73.3870010
  74.3050003 113.9120026  72.3990021  73.8190002 113.6370010  74.4800034
  73.3570023 112.6819992  74.1490021  73.0100021 114.3929977  74.5759964
  74.4619980 113.3639984  75.8430023  74.6770020 114.3130035  76.3779984
  75.4339981 112.8619995  75.6500015  73.6529999 112.4199982  76.7389984
  73.3130035 111.5650024  76.1159973  72.7500000 112.9369965  77.1289978
  74.4609985 111.8300018  77.9059982  74.7880020 112.6289978  78.6060028
  75.3779984 111.3880005  77.4619980  73.6930008 110.7310028  78.6539993
  72.8899994 110.3949966  77.9629974  73.1900024 111.1539993  79.5490036
  74.5210037 109.4850006  79.0080032  75.3509979 109.3820038  78.2770004
  73.8600006 108.6019974  78.8789978  75.0719986 109.4509964  80.4369965
  74.2429962 109.4530029  81.1760025  75.7129974 110.3389969  80.6259995
  75.6839981 108.5370026  80.5910034  77.4570007 107.9179993  71.0830002
  76.3799973 107.7949982  71.3259964  77.7099991 108.9840012  71.2689972
  78.2060013 107.0049973  72.0670013  78.2539978 105.9720001  71.6600037
  77.5970001 106.9670029  72.9960022  79.6159973 107.4580002  72.4619980
  79.5989990 108.5540009  72.6409988  80.3229980 107.2620010  71.6279984
  80.1179962 106.7730026  73.7480011  80.1849976 105.6750031  73.5920029
  79.3730011 106.9520035  74.5520020  81.4789963 107.3040009  74.2170029
  81.4400024 108.4120026  74.2829971  82.2310028 107.0319977  73.4459991
  81.9660034 106.7440033  75.5599976  83.0309982 107.0360031  75.6859970
  81.9280014 105.6340027  75.5400009  81.1869965 107.2549973  76.7799988
  80.1409988 106.8830032  76.7490005  81.1520004 108.3639984  76.7269974
  81.8550034 106.8580017  78.1070023  81.4179993 107.4639969  78.9290009
  82.9290009 107.1320038  78.0380020  81.7620010 105.3619995  78.4629974
  82.4860001 105.1669998  79.2839966  82.0849991 104.7539978  77.5920029
  80.3820038 104.8789978  78.9479980  80.4749985 103.8050003  79.2190018
  79.6449966 104.9589996  78.1200027  79.8799973 105.6579971  80.1709976
  79.5940018 106.6829987  79.8519974  80.7229996 105.7590027  80.8880005
  78.6900024 105.0279999  80.9100037  78.9820023 104.0250015  81.2890015
  77.8369980 104.9059982  80.2089996  78.2750015 105.9270020  82.0800018
  77.9430008 106.8970032  81.6510010  79.1890030 106.1200027  82.6800003
  77.1969986 105.4169998  83.0289993  76.2089996 105.3730011  82.5230026
  77.0960007 106.1070023  83.8939972  77.4469986 104.4079971  83.4209976
  82.5149994  65.6780014  64.5859985  83.1510010  66.1559982  65.8750000
  82.8860016  67.1910019  66.0329971  84.2239990  66.1129990  65.7590027
  81.0899963  65.3470001  64.8659973  80.6200027  64.8779984  64.0139999
  81.0709991  64.6539993  65.6940002  80.5439987  66.2320023  65.1549988
  82.6190033  66.7249985  63.5270004  83.6539993  66.9619980  63.3260002
  82.1760025  66.3850021  62.6020012  82.1169968  67.6309967  63.8310013
  83.2030029  64.4240036  64.1510010  83.1949997  63.7400017  64.9869995
  84.2310028  64.6159973  63.8820000  82.6969986  63.9599991  63.3180008
  82.7699966  65.3769989  67.1640015  81.7490005  65.7070007  67.4540024
  83.4619980  65.6940002  67.9739990  82.3239975  63.0379982  68.2190018
  83.3339996  63.1160011  69.3180008  82.0459976  61.6689987  67.6770020
  82.8259964  63.9570007  67.0000000  80.9599991  63.7459984  68.6979980
  79.6930008  63.0789986  68.6989975  79.7839966  61.9720001  68.6699982
  79.1259995  63.3919983  67.7959976  78.7929993  63.4189987  69.9430008
  77.7939987  62.9970016  69.7020035  78.6900024  64.8499985  70.1220016
  77.7060013  65.2419968  70.9150009  76.7809982  64.5410004  71.3030014
  77.8870010  66.7289963  71.2509995  76.9100037  67.2389984  71.1119995
  78.6240005  67.1579971  70.5390015  79.2679977  62.7060013  71.2600021
  79.2229996  61.6119995  71.0729980  78.5479965  62.9399986  72.0729980
  80.6060028  63.0839996  71.6399994  81.0439987  62.5079994  72.7559967
  80.3529968  61.8559990  73.5279999  82.5589981  62.6959991  72.8799973
  83.0049973  62.3380013  71.9270020  82.9290009  62.0410004  73.6969986
  78.4029999  66.9280014  72.6920013  78.8160019  67.9570007  72.7659988
  79.2389984  66.2279968  72.9020004  77.3050003  66.7860031  73.7570038
  76.8690033  65.7669983  73.6869965  76.4929962  67.5130005  73.5429993
  77.7979965  66.9980011  75.2020035  78.6159973  66.2730026  75.4010010
  76.9670029  66.7649994  75.9020004  78.3109970  68.4169998  75.5110016
  77.4879990  69.1549988  75.3980026  79.1039963  68.6699982  74.7760010
  78.9209976  68.5390015  76.9140015  79.5159988  67.6129990  77.0650024
  78.1210022  68.5510025  77.6839981  79.8499985  69.7580032  77.0879974
  79.2220001  70.6719971  77.1600037  80.4609985  69.8610001  76.1660004
  80.7760010  69.6039963  78.2720032  81.5640030  68.8489990  78.1350021
  80.7149963  70.2580032  79.4469986  81.4509964  70.0090027  80.2259979
  79.7020035  71.3010025  79.8489990  79.4430008  71.9400024  78.9779968
  80.1439972  71.9789963  80.6100006  78.3809967  70.7300034  80.4150009
  77.8789978  70.0979996  79.6510010  77.7149963  71.5989990  80.6050034
  78.5090027  69.9430008  81.7360001  77.5759964  70.1019974  82.3170013
  79.3509979  70.3529968  82.3349991  78.6839981  68.4229965  81.5500031
  79.6019974  68.2379990  80.9520035  77.8249969  68.0289993  80.9660034
  78.8059998  67.6289978  82.8629990  79.6439972  68.0400009  83.4649963
  79.0650024  66.5790024  82.6060028  77.5260010  67.6029968  83.7149963
  76.6869965  67.2300034  83.0889969  77.2730026  68.6350021  84.0380020
  77.6500015  66.7060013  84.9560013  78.4800034  67.0849991  85.5899963
  77.9280014  65.6819992  84.6269989  76.3690033  66.6309967  85.7910004
  76.5149994  65.9690018  86.6709976  75.5319977  66.2259979  85.1829987
  76.0800018  67.6399994  86.1539993  82.9919968  64.1610031  73.1149979
  82.3040009  64.8769989  72.6169968  83.9850006  64.2850037  72.6299973
  83.1800003  64.5149994  74.5960007  83.8239975  65.4169998  74.6729965
  83.7190018  63.6829987  75.0979996  81.8690033  64.8050003  75.3339996
  81.0830002  64.0970001  74.9929962  81.5289993  65.8300018  75.0729980
  81.9869995  64.6689987  76.8610001  82.8740005  65.2279968  77.2289963
  82.1389999  63.5960007  77.1029968  80.7320023  65.1900024  77.5719986
  79.8730011  65.0569992  76.8799973  80.8560028  66.2779999  77.7590027
  80.3679962  64.4860001  78.8860016  80.4759979  63.3860016  78.7689972
  79.2949982  64.6959991  79.0859985  81.1600037  64.9759979  80.1070023
  81.1149979  66.0859985  80.1269989  82.2259979  64.6780014  80.0110016
  80.5839996  64.4550018  81.4339981  79.4850006  64.6119995  81.4160004
  80.9899979  65.0510025  82.2789993  80.8809967  62.9729996  81.7080002
  81.8550034  62.9010010  82.2369995  80.9889984  62.4329987  80.7429962
  79.7900009  62.2500000  82.5189972  80.1269989  61.2039986  82.6829987
  78.8629990  62.2159996  81.9079971  79.4570007  62.8639984  83.8909988
  78.5699997  62.3320007  84.2959976  79.1839981  63.9339981  83.7689972
  80.6050034  62.7340012  84.9010010  81.4919968  63.2700005  84.5009995
  80.8759995  61.6599998  84.9830017  80.2979965  63.2719994  86.3059998
  79.9229965  64.3140030  86.2210007  81.2570038  63.3059998  86.8649979
  79.3050003  62.4239998  87.1060028  78.3219986  62.3740005  86.5910034
  79.1510010  62.8559990  88.1179962  79.6940002  61.3899994  87.2220001
  46.2739983  99.8710022  67.8550034  45.8540001  99.7279968  66.4010010
  45.9980011 100.6809998  65.9150009  44.7949982  99.5149994  66.3750000
  46.2190018  98.5419998  68.5350037  45.2190018  98.1340027  68.4980011
  46.8829994  97.8580017  68.0279999  46.5229988  98.6220016  69.5680008
  47.6720009 100.3870010  67.9000015  48.2919998  99.7429962  67.2939987
  47.7220001 101.3759995  67.4680023  48.0470009 100.4179993  68.9120026
  45.3769989 100.8349991  68.5640030  45.3959999 101.8020020  68.0839996
  45.6930008 100.9639969  69.5889969  44.3569984 100.4800034  68.5699997
  46.5820007  98.6520004  65.5429993  46.0569992  98.5780029  64.5670013
  46.4510002  97.6610031  66.0289993  48.4920006  99.7910004  64.1510010
  47.9430008 101.1780014  64.2379990  48.2120018  99.0650024  62.8730011
  47.9819984  98.9079971  65.3870010  50.0839996  99.8519974  64.3389969
  50.6889992 100.3239975  65.5510025  49.9560013 100.6819992  66.3050003
  51.3440018 101.1869965  65.3030014  51.5929985  99.2440033  66.2269974
  52.1739998  98.7710037  65.4069977  50.7589989  98.2679977  66.8929977
  51.3380013  97.0970001  67.1090012  52.5120010  96.8290024  66.8860016
  50.3009987  96.0749969  67.5920029  50.8110008  95.0920029  67.6790009
  49.5219994  95.9950027  66.8040009  52.6310005  99.9000015  67.1969986
  53.2459984 100.5989990  66.5910034  53.3250008  99.1119995  67.5619965
  51.9830017 100.6480026  68.2500000  52.1510010 100.2050018  69.4950027
  52.9230003  99.3239975  69.8430023  51.2299995 100.9800034  70.4339981
  50.9350014 101.9339981  69.9459991  51.7949982 101.2170029  71.3610001
  49.6399994  96.4459991  68.9359970  48.8450012  95.6969986  69.1389999
  49.1489983  97.4400024  68.8690033  50.6220016  96.4280014  70.1139984
  51.3009987  97.3040009  70.0390015  51.2439995  95.5090027  70.0599976
  49.9099998  96.4509964  71.4729996  49.2939987  95.5289993  71.5550003
  49.2239990  97.3239975  71.5189972  50.8750000  96.4919968  72.6650009
  51.4580002  97.4369965  72.6250000  51.5909996  95.6490021  72.5579987
  50.1769981  96.3639984  74.0350037  50.9490013  96.2730026  74.8290024
  49.5880013  95.4219971  74.0400009  49.2340012  97.5270004  74.4140015
  48.7770004  97.2829971  75.3970032  48.4010010  97.5579987  73.6800003
  49.9039993  98.8759995  74.4639969  49.7719994  99.4759979  73.5510025
  50.6259995  99.3899994  75.4759979  51.0610008 100.3929977  75.3560028
  50.9179993  98.7190018  76.7949982  51.8250008  98.0859985  76.6969986
  50.0859985  98.0500031  77.1019974  51.1749992  99.7259979  77.9329987
  50.2579994 100.3270035  78.1110001  51.9910011 100.4189987  77.6370010
  51.5839996  99.0380020  79.2440033  52.4780006  98.4089966  79.0490036
  50.7630005  98.3649979  79.5729980  51.9090004 100.0260010  80.3740005
  51.0060005 100.6269989  80.6149979  52.6969986 100.7210007  80.0120010
  52.4140015  99.3280029  81.6439972  53.2369995  98.6439972  81.3450012
  51.5950012  98.7119980  82.0729980  52.9529991 100.2919998  82.7129974
  52.1119995 100.8970032  83.1139984  53.6710014 100.9909973  82.2330017
  53.6809998  99.5999985  83.8779984  54.0680008 100.3899994  84.5569992
  54.5620003  99.0569992  83.4729996  52.8230019  98.6279984  84.6900024
  51.9410019  99.1539993  85.1119995  53.4109993  98.1959991  85.5279999
  52.4589996  97.7959976  84.0500031  49.9770012 100.1569977  70.7740021
  50.2599983  99.3000031  71.4219971  49.5419998  99.7340012  69.8430023
  48.9119987 100.9990005  71.4810028  48.6739998 101.8919983  70.8649979
  49.3320007 101.3610001  72.4440002  47.6170006 100.2220001  71.7500000
  47.8549995  99.2770004  72.2829971  47.1619987  99.9509964  70.7730026
  46.5890007 101.0130005  72.5709991  45.6129990 100.4860001  72.5210037
  46.4560013 102.0220032  72.1240005  46.9819984 101.1539993  74.0490036
  47.9609985 101.6729965  74.1250000  47.1090012 100.1330032  74.4700012
  45.9510002 101.9290009  74.8820038  44.9599991 101.4359970  74.7789993
  45.8650017 102.9550018  74.4629974  46.3019981 102.0339966  76.3769989
  45.5400009 102.6729965  76.8710022  47.2859993 102.5390015  76.4840012
  46.3540001 100.6770020  77.0999985  47.1889992 100.0780029  76.6780014
  45.4099998 100.1269989  76.9000015  46.5429993 100.7990036  78.6210022
  45.7190018 101.4240036  79.0270004  47.4990005 101.3249969  78.8310013
  46.5410004  99.4489975  79.3629990  45.6349983  98.8750000  79.0770035
  46.4830017  99.6600037  80.4530029  47.7939987  98.5989990  79.0989990
  48.6930008  99.1640015  79.4250031  47.8790016  98.4489975  78.0009995
  47.8069992  97.2060013  79.7580032  48.5219994  96.5930023  79.1689987
  46.8100014  96.7239990  79.6699982  48.2999992  97.1669998  81.2180023
  49.1769981  97.8410034  81.3209991  48.6549988  96.1340027  81.4219971
  47.2529984  97.5169983  82.2779999  46.9519997  98.5839996  82.1930008
  47.6650009  97.3610001  83.2979965  46.3479996  96.8840027  82.1630020
  90.1940002  34.3759995  67.3460007  90.3889999  33.3610001  66.2310028
  89.7630005  32.5079994  66.4499969  91.4169998  33.0309982  66.2480011
  88.7360001  34.6479988  67.5000000  88.2070007  33.7480011  67.7779999
  88.5490036  35.4199982  68.2320023  88.3440018  34.9560013  66.5419998
  90.7389984  33.8489990  68.6350021  90.5479965  34.5460014  69.4380035
  90.2890015  32.9029999  68.8980026  91.8069992  33.7039986  68.5699997
  90.8929977  35.6559982  67.0139999  91.9530029  35.4980011  66.8820038
  90.7490005  36.3909988  67.7929993  90.4960022  36.0559998  66.0920029
  90.0469971  33.7919998  64.7730026  90.3929977  32.9910011  64.0839996
  90.6490021  34.6899986  64.5189972  87.5999985  32.8989983  64.4530029
  87.9769974  32.0040016  63.3180008  86.2330017  33.4949989  64.3820038
  88.6620026  34.0880013  64.5690002  87.7750015  32.1020012  65.8320007
  86.7710037  31.1580009  66.2229996  86.9039993  30.2129993  65.6539993
  85.7450027  31.5330009  66.0240021  86.8570023  30.8129997  67.7419968
  86.1409988  29.9890003  67.9449997  86.5609970  31.9559994  68.5729980
  85.2760010  32.2150002  68.7340012  84.3479996  31.6779995  68.1490021
  85.1100006  33.2159996  69.8759995  85.7080002  32.8400002  70.7330017
  84.0410004  33.2200012  70.1770020  88.2580032  30.2660007  68.1370010
  88.9990005  31.0319996  67.8239975  88.4589996  29.3379993  67.5609970
  88.2819977  29.9810009  69.5550003  89.2689972  30.5400009  70.2539978
  90.3050003  30.9839993  69.7819977  88.8750000  30.5349998  71.7369995
  88.9810028  29.4920006  72.1039963  87.8069992  30.8309994  71.8140030
  85.5569992  34.6440010  69.4990005  84.9889984  34.9949989  68.6100006
  86.6340027  34.6269989  69.2279968  85.3659973  35.6599998  70.6360016
  84.2850037  35.7369995  70.8789978  85.7040024  36.6580009  70.2829971
  86.1409988  35.2970009  71.9120026  87.2109985  35.1389999  71.6579971
  85.7490005  34.3380013  72.3140030  86.0469971  36.3689995  73.0059967
  84.9850006  36.6349983  73.1949997  86.5550003  37.2789993  72.6210022
  86.7180023  35.9620018  74.3310013  87.1819992  36.8740005  74.7630005
  87.5390015  35.2389984  74.1360016  85.7559967  35.4099998  75.4089966
  84.9700012  36.1759987  75.5849991  86.3450012  35.3400002  76.3479996
  85.1129990  34.0870018  75.0609970  84.5859985  34.0810013  74.0950012
  85.1210022  32.9519997  75.7890015  84.6060028  32.0680008  75.3860016
  85.7419968  32.7459984  77.1500015  84.9889984  32.2999992  77.8330002
  86.0370026  33.7120018  77.6129990  86.9820023  31.8290005  77.1620026
  86.7139969  30.8169994  76.7890015  87.3030014  31.7269993  78.2210007
  88.1800003  32.3530006  76.3570023  88.4830017  33.3359985  76.7760010
  87.8669968  32.5229988  75.3050003  89.4049988  31.4190006  76.3369980
  90.1589966  31.9099998  75.6849976  89.1370010  30.4500008  75.8629990
  90.0690002  31.1720009  77.6999969  89.9000015  32.0620003  78.3440018
  91.1650009  31.0779991  77.5419998  89.5859985  29.8939991  78.4069977
  89.7210007  29.0279999  77.7249985  88.4990005  29.9880009  78.6159973
  90.3050003  29.6019993  79.7330017  91.3740005  29.3799992  79.5230026
  89.8560028  28.6879997  80.1760025  90.2269974  30.7369995  80.7539978
  89.1750031  31.0650005  80.8899994  90.8180008  31.6149998  80.4179993
  90.6210022  30.4009991  81.7369995  89.7399979  31.4820004  72.6009979
  90.8170013  31.2339993  72.4970016  89.4530029  31.3020000  73.6600037
  89.5080032  32.9770012  72.3099976  88.4150009  33.1689987  72.2610016
  89.9430008  33.2229996  71.3180008  90.1080017  33.9210014  73.3720016
  89.5350037  33.7830009  74.3140030  89.9609985  34.9710007  73.0419998
  91.5999985  33.6790009  73.6679993  92.1740036  33.7480011  72.7190018
  91.7129974  32.6469994  74.0619965  92.2369995  34.6349983  74.6959991
  92.3460007  35.6450005  74.2470016  93.2539978  34.2529984  74.9290009
  91.4400024  34.7579994  76.0029984  91.1409988  33.7449989  76.3470001
  90.5070038  35.3209991  75.7910004  92.1930008  35.4500008  77.1510010
  92.8020020  36.2809982  76.7350006  92.8889999  34.7210007  77.6179962
  91.2590027  36.0410004  78.2229996  90.6969986  36.8720016  77.7460022
  91.8580017  36.4770012  79.0510025  90.2330017  35.0530014  78.8000031
  90.7269974  34.3339996  79.4879990  89.7939987  34.4620018  77.9670029
  89.0670013  35.7579994  79.5039978  88.7360001  36.5870018  78.8420029
  89.4089966  36.2070007  80.4609985  87.8440018  34.8600006  79.7409973
  87.6539993  34.2799988  78.8130035  86.9649963  35.5130005  79.9300003
  87.9980011  33.8870010  80.9160004  88.1839981  34.4729996  81.8410034
  88.8949966  33.2579994  80.7340012  86.7939987  32.9609985  81.1510010
  87.0510025  32.2859993  81.9950027  86.6569977  32.3250008  80.2509995
  85.4720001  33.6619987  81.4759979  84.6839981  32.9119987  81.7020035
  85.1309967  34.2820015  80.6190033  85.5930023  34.3209991  82.3619995
 101.6989975 100.4100037  66.9710007 100.8440018 100.3479996  65.7220001
 101.0449982 101.2300034  65.1320038  99.8059998 100.3820038  66.0179977
 101.7249985 101.7839966  67.5540009 102.1669998 102.4830017  66.8600006
 100.7340012 102.1320038  67.8030014 102.3219986 101.7939987  68.4540024
 101.1669998  99.4410019  67.9710007 101.0920029  98.4769974  67.4889984
 101.8239975  99.3610001  68.8239975 100.1800003  99.7259979  68.3040009
 103.0970001 100.0029984  66.6389999 103.0770035  99.0090027  66.2200012
 103.7139969  99.9909973  67.5260010 103.5199966 100.6709976  65.9039993
 101.0230026  99.1129990  64.7939987 102.0500031  99.1399994  64.3720016
 100.3399963  99.2409973  63.9280014  99.4680023  97.0540009  65.3290024
  99.5419998  95.8410034  66.1979980  99.1989975  96.7919998  63.8810005
 100.8369980  97.8629990  65.4649963  98.3789978  98.0729980  65.9169998
  97.0630035  98.1139984  65.3410034  96.7170029  97.1190033  64.9889984
  97.0749969  98.7890015  64.4580002  95.9609985  98.6439972  66.3310013
  95.1340027  99.0650024  65.7190018  96.4489975  99.6539993  67.2300034
  96.9769974 100.7340012  66.6809998  96.8529968 101.0849991  65.5159988
  97.7419968 101.5469971  67.7429962  97.1989975 102.5049973  67.8889999
  98.7470016 101.7669983  67.3219986  95.3300018  97.4840012  67.1719971
  94.7990036  96.8209991  66.4570007  94.5569992  97.9020004  67.8519974
  96.3249969  96.6989975  67.8659973  96.6470032  97.0800018  69.1029968
  96.0210037  97.8669968  69.7959976  97.8990021  96.3010025  69.5309982
  98.6829987  96.4850006  68.7649994  97.6419983  95.2200012  69.5189972
  97.8899994 100.8130035  69.0950012  98.3619995  99.8229980  68.9219971
  96.8789978 100.6320038  69.5189972  98.7350006 101.5759964  70.1220016
  98.1849976 102.4759979  70.4700012  99.6679993 101.9160004  69.6240005
  99.1370010 100.7080002  71.3280029  99.8410034 101.2659988  71.9800034
  99.6829987  99.8239975  70.9329987  97.9550018 100.1989975  72.1709976
  98.1969986  99.1940002  72.5800018  97.0650024 100.0609970  71.5210037
  97.5699997 101.0989990  73.3519974  96.5350037 100.8089981  73.6350021
  97.5479965 102.1610031  73.0270004  98.4759979 100.9229965  74.5839996
  99.4830017 101.3290024  74.3470001  98.5979996  99.8330002  74.7590027
  97.8700027 101.5520020  75.8170013  96.7910004 101.3700027  75.9280014
  98.4850006 102.2979965  76.7539978  97.8880005 102.6589966  77.6039963
  99.9440002 102.6849976  76.8209991 100.0240021 103.7839966  76.9680023
 100.4769974 102.4509964  75.8750000 100.7160034 102.0019989  77.9720001
 101.7500000 102.4059982  77.9800034 100.7890015 100.9110031  77.7740021
 100.0930023 102.2160034  79.3610001  99.0879974 101.7429962  79.3870010
  99.9570007 103.3059998  79.5250015 100.9089966 101.6429977  80.5289993
 101.9120026 102.1200027  80.5559998 101.0500031 100.5550003  80.3550034
 100.1920013 101.8629990  81.8700027  99.1409988 101.5250015  81.7500000
 100.1589966 102.9550018  82.0739975 100.7829971 101.1340027  83.0859985
 100.1559982 101.3970032  83.9649963 101.8140030 101.4950027  83.2860031
 100.7880020  99.6050034  82.9430008 101.6019974  99.3089981  82.2490005
  99.8300018  99.2949982  82.4729996 100.9479980  98.8629990  84.2689972
 101.8270035  99.2470016  84.8300018 101.0960007  97.7770004  84.0859985
 100.0419998  98.9960022  84.8990021  98.4509964  96.6890030  70.9209976
  97.6679993  96.5500031  71.6969986  98.7350006  97.7630005  70.9110031
  99.6849976  95.8489990  71.2890015 100.4680023  96.0130005  70.5179977
  99.4020004  94.7750015  71.2529984 100.2919998  96.1429977  72.6740036
 101.1070023  95.4079971  72.8430023  99.5189972  95.9889984  73.4570007
 100.8860016  97.5530014  72.8020020 100.0609970  98.2969971  72.7689972
 101.5390015  97.7450027  71.9229965 101.7089996  97.8020020  74.0790024
 102.0800018  98.8479996  74.0350037 102.5979996  97.1360016  74.0830002
 100.9229965  97.6380005  75.3899994 100.6309967  96.5759964  75.5350037
  99.9830017  98.2249985  75.3109970 101.7070007  98.1419983  76.6139984
 101.8180008  99.2429962  76.5070038 102.7279968  97.7060013  76.6149979
 101.0439987  97.8639984  77.9759979 101.6100006  98.4250031  78.7500000
 101.1240005  96.7839966  78.2239990  99.5690002  98.2839966  78.0559998
  98.9509964  97.6119995  77.4240036  99.4660034  99.3079987  77.6380005
  99.0090027  98.2990036  79.4850006  99.6320038  98.9850006  80.0970001
  99.0759964  97.2850037  79.9339981  97.5579987  98.7959976  79.5350037
  96.8870010  98.0070038  79.1330032  97.4769974  99.6790009  78.8659973
  97.0749969  99.2369995  80.9250031  96.0220032  99.5770035  80.8259964
  97.6829987 100.1090012  81.2450027  97.1330032  98.1770020  82.0289993
  98.1869965  97.8570023  82.1729965  96.5569992  97.2850037  81.7020035
  96.5690002  98.6679993  83.3639984  96.5920029  97.8529968  84.1190033
  95.5159988  99.0029984  83.2440033  97.1699982  99.5220032  83.7460022
  40.1409988 106.9160004  65.7379990  38.8689995 106.4550018  65.0559998
  38.9830017 105.4100037  64.8099976  38.7750015 106.9919968  64.1230011
  40.2760010 106.2160034  67.0469971  40.3520012 105.1500015  66.8939972
  41.1500015 106.5439987  67.5899963  39.3959999 106.4039993  67.6439972
  41.3120003 106.5920029  64.8700027  41.4090004 105.5240021  64.7480011
  41.1879997 107.0350037  63.8930016  42.2319984 106.9710007  65.2900009
  40.0639992 108.3899994  65.9349976  39.1030006 108.6169968  66.3730011
  40.1030006 108.8970032  64.9820023  40.8520012 108.7620010  66.5729980
  37.5419998 106.6309967  65.8379974  37.6150017 106.0780029  66.7990036
  36.7500000 106.1320038  65.2399979  35.8089981 108.6569977  65.8980026
  35.0629997 107.9670029  64.8040009  35.9780006 110.1309967  65.7320023
  37.2480011 108.0039978  66.1009979  35.0419998 108.4110031  67.2809982
  34.9160004 107.1179962  67.8840027  35.2869987 106.3030014  67.2269974
  33.8409996 106.9100037  68.0680008  35.6510010 106.9879990  69.2610016
  35.1220016 107.6340027  69.9940033  37.0449982 107.3460007  69.1490021
  37.3260002 108.6210022  69.4000015  36.5279999 109.4749985  69.7659988
  38.8310013 108.8539963  69.2239990  38.9630013 109.4359970  68.2860031
  39.3479996 107.8769989  69.1169968  35.5279999 105.5260010  69.8020020
  35.6940002 104.8479996  68.9369965  34.4910011 105.3470001  70.1600037
  36.5070000 105.1999969  70.8099976  36.3600006 105.8050003  71.9840012
  35.3989983 106.4800034  72.3209991  37.6209984 105.5380020  72.8099976
  38.4160004 106.2050018  72.4150009  37.9410019 104.4869995  72.6429977
  39.4290009 109.6320038  70.4120026  38.9039993 110.6029968  70.5299988
  40.4959984 109.8580017  70.1979980  39.3499985 108.8460007  71.7279968
  39.9379997 107.9079971  71.6340027  38.2939987 108.5650024  71.9250031
  39.8619995 109.6490021  72.9300003  39.3209991 110.6179962  72.9749985
  40.9389992 109.8799973  72.7850037  39.6710014 108.9179993  74.2659988
  40.1759987 107.9290009  74.2239990  38.5849991 108.7389984  74.4209976
  40.2200012 109.7190018  75.4570007  39.8380013 110.7580032  75.3730011
  41.3269997 109.7699966  75.3809967  39.8030014 109.1760025  76.8410034
  38.6969986 109.0780029  76.8489990  40.0680008 109.9560013  77.5869980
  40.4420013 107.8509979  77.1859970  40.4920006 107.1409988  76.3470001
  40.9539986 107.4720001  78.3740005  41.3880005 106.4639969  78.4499969
  40.9910011 108.2570038  79.6689987  40.6049995 109.2890015  79.5289993
  42.0419998 108.3560028  80.0169983  40.1689987 107.6060028  80.8079987
  39.1209984 107.4599991  80.4670029  40.1459999 108.3099976  81.6669998
  40.7330017 106.2570038  81.2979965  41.7529984 106.4020004  81.7129974
  40.8129997 105.5830002  80.4179993  39.8479996 105.5370026  82.3310013
  40.1189995 104.4589996  82.3399963  38.7929993 105.6009979  81.9899979
  39.9440002 106.0540009  83.7789993  38.9630013 105.8590012  84.2610016
  40.1160011 107.1520004  83.7959976  41.0099983 105.3209991  84.6159973
  42.0209999 105.6360016  84.2809982  40.9160004 104.2320023  84.4140015
  40.8660011 105.5059967  86.1380005  41.6259995 104.8659973  86.6350021
  39.8670006 105.1169968  86.4300003  41.0110016 106.9400024  86.6579971
  40.8520012 106.9639969  87.7570038  40.2620010 107.6080017  86.1819992
  42.0279999 107.3330002  86.4430008  37.4440002 105.7979965  74.3199997
  37.0779991 106.8280029  74.5169983  38.4529991 105.7200012  74.7799988
  36.5379982 104.7649994  75.0080032  36.5859985 103.8229980  74.4209976
  35.4840012 105.1149979  74.9950027  36.9790001 104.4380035  76.4440002
  38.0509987 104.1470032  76.4229965  36.4059982 103.5599976  76.8119965
  36.7980003 105.5989990  77.4309998  35.7130013 105.7429962  77.6230011
  37.1809998 106.5329971  76.9670029  37.5439987 105.4120026  78.7649994
  37.3279991 106.2870026  79.4140015  38.6370010 105.4240036  78.5609970
  37.2229996 104.1259995  79.5500031  37.7809982 104.1669998  80.5090027
  37.6030006 103.2500000  78.9820023  35.7340012 103.8919983  79.8659973
  35.6559982 103.0270004  80.5579987  35.2140007 103.6129990  78.9250031
  35.0000000 105.0920029  80.4869995  33.9449997 104.7990036  80.6750031
  34.9920006 105.9300003  79.7580032  35.5870018 105.6050034  81.8030014
  36.6640015 105.8509979  81.6800003  35.5159988 104.7969971  82.5619965
  34.8429985 106.8470001  82.3030014  33.8009987 106.8069992  81.9189987
  35.3260002 107.7429962  81.8590012  34.7579994 106.9720001  83.8300018
  34.1660004 106.1139984  84.2129974  34.2019997 107.9000015  84.0839996
  36.1090012 106.9820023  84.5540009  36.7239990 107.8310013  84.1880035
  36.6559982 106.0429993  84.3209991  35.9379997 107.0849991  86.0749969
  35.2939987 106.2429962  86.4069977  35.4010010 108.0289993  86.3099976
  37.2519989 107.0380020  86.8519974  37.7830009 106.0830002  86.6510010
  37.0620003 107.1129990  87.9440002  37.9129982 107.8769989  86.5469971
  98.9469986 138.7129974  66.0149994  98.8190002 138.1770020  64.6060028
  99.7320023 138.3970032  64.0729980  98.0240021 138.7200012  64.1169968
  99.9130020 137.9060059  66.8140030 100.8769989 137.8789978  66.3270035
 100.0329971 138.3300018  67.8000031  99.5370026 136.8990021  66.9160004
  99.4169998 140.1300049  65.9769974 100.3960037 140.1970062  65.5270004
  98.7310028 140.7429962  65.4110031  99.4769974 140.5310059  66.9779968
  97.6179962 138.6809998  66.6819992  96.9100037 139.2910004  66.1409988
  97.6859970 139.0200043  67.7060013  97.2440033 137.6690063  66.6660004
  98.5169983 136.6710052  64.4329987  99.3489990 136.0890045  64.8830032
  98.5199966 136.4219971  63.3499985  95.9079971 136.4519958  64.2880020
  95.8050003 135.4239960  63.2080002  95.7109985 137.8699951  63.8559990
  97.2979965 136.2819977  65.0530014  94.8229980 136.1100006  65.4150009
  95.0940018 135.1239929  66.4250031  95.8020020 134.3379974  66.0869980
  94.1370010 134.6060028  66.6470032  95.5930023 135.6940002  67.8000031
  95.0550003 135.1360016  68.5960007  95.3199997 137.1049957  67.9290009
  94.0260010 137.3659973  68.0859985  93.1660004 136.5469971  68.3880005
  93.7819977 138.8500061  67.7750015  93.1660004 138.8710022  66.8509979
  94.7470016 139.3560028  67.5589981  97.1019974 135.3679962  68.0680008
  97.6139984 135.2570038  67.0879974  97.1689987 134.3809967  68.5739975
  97.7919998 136.3780060  68.8229980  97.3109970 136.6170044  70.0410004
  96.5429993 135.8990021  70.6620026  97.7979965 138.0229950  70.4380035
  97.0100021 138.7290039  70.0999985  98.7350006 138.2570038  69.8880005
  93.0339966 139.5930023  68.8980026  92.1009979 139.0590057  69.1790009
  92.7340012 140.5780029  68.4810028  93.8889999 139.8619995  70.1460037
  94.9449997 140.0619965  69.8659973  93.4940033 140.7839966  70.6240005
  93.8059998 138.7440033  71.1940002  94.3259964 137.8350067  70.8229980
  92.7369995 138.4790039  71.3349991  94.3899994 139.1620026  72.5559998
  94.0279999 140.1849976  72.7929993  95.4970016 139.2030029  72.4810028
  93.9599991 138.2339935  73.7089996  94.1360016 137.1849976  73.3880005
  92.8679962 138.3480072  73.8769989  94.7160034 138.4360046  75.0459976
  95.7880020 138.2120056  74.8580017  94.3519974 137.6490021  75.7409973
  94.5889969 139.8099976  75.6679993  94.6539993 140.6450043  74.9550018
  94.4130020 140.1049957  76.9749985  94.3379974 141.1640015  77.2639999
  94.3130035 139.1450043  78.1409988  94.4229965 138.0879974  77.8160019
  93.3109970 139.2369995  78.6110001  95.3629990 139.3820038  79.2509995
  96.3889999 139.2729950  78.8379974  95.2289963 138.5820007  80.0100021
  95.2310028 140.7420044  79.9560013  94.1729965 140.8919983  80.2570038
  95.4990005 141.5310059  79.2210007  96.1389999 140.9299927  81.1829987
  96.1669998 142.0059967  81.4580002  97.1689987 140.6329956  80.8919983
  95.7289963 140.1190033  82.4219971  96.6060028 140.0910034  83.1039963
  95.4990005 139.0740051  82.1200027  94.5250015 140.6470032  83.2119980
  93.5889969 140.2799988  82.7389984  94.5070038 141.7559967  83.1510010
  94.5780029 140.2059937  84.6829987  95.5429993 140.5529938  85.1119995
  94.5810013 139.0950012  84.7129974  93.4380035 140.7259979  85.5599976
  93.6269989 140.4869995  86.6289978  92.4779968 140.2530060  85.2649994
  93.3379974 141.8280029  85.4570007  98.0189972 138.2070007  71.9489975
  97.1760025 137.7680054  72.5240021  98.0279999 139.2989960  72.1539993
  99.3499985 137.6380005  72.4520035 100.1669998 137.9040070  71.7470016
  99.2740021 136.5299988  72.4739990  99.7289963 138.1430054  73.8550034
 100.0630035 139.1979980  73.7620010 100.5810013 137.5399933  74.2379990
  98.5640030 138.1040039  74.8560028  98.0859985 137.1020050  74.8190002
  97.8030014 138.8430023  74.5260010  98.9270020 138.4490051  76.3119965
  97.9729996 138.5610046  76.8710022  99.4410019 139.4329987  76.3470001
  99.7760010 137.3950043  77.0490036  99.8899994 137.7180023  78.1060028
 100.7910004 137.3589935  76.5979996  99.1940002 135.9649963  77.0390015
  99.8239975 135.3139954  77.6819992  99.2689972 135.5800018  76.0000000
  97.7200012 135.8370056  77.4830017  97.4130020 134.7720032  77.4120026
  97.0960007 136.4160004  76.7699966  97.4130020 136.3520050  78.9000015
  96.3130035 136.4349976  79.0299988  97.8300018 137.3769989  79.0000000
  97.9550018 135.4720001  80.0370026  98.8180008 134.8809967  79.6620026
  97.1709976 134.7460022  80.3430023  98.4459991 136.2720032  81.2519989
  99.2969971 136.8939972  80.9000015  98.8389969 135.5690002  82.0179977
  97.4489975 137.2350006  81.9150009  97.0120010 137.9109955  81.1490021
  98.0419998 137.8659973  82.6100006  96.3270035 136.5890045  82.7450027
  95.9990005 137.3450012  83.4899979  96.7399979 135.7259979  83.3089981
  95.0889969 136.1609955  81.9599991  94.2939987 135.8249969  82.6589966
  95.3249969 135.3269958  81.2639999  94.6920013 137.0169983  81.3740005
  53.9420013 126.3519974  64.0589981  54.1839981 127.4420013  65.0869980
  54.6860008 128.2640076  64.5989990  54.8619995 127.0530014  65.8320007
  55.2260017 125.9810028  63.3880005  55.6199989 126.8170013  62.8289986
  55.9669991 125.6829987  64.1149979  55.0699997 125.1669998  62.6959991
  53.3750000 125.1559982  64.7470016  52.5070000 125.4749985  65.3059998
  53.0929985 124.3889999  64.0410004  54.0810013 124.7649994  65.4639969
  52.9729996 126.8140030  63.0200005  52.0320015 127.0709991  63.4860001
  52.7919998 126.0380020  62.2910004  53.3460007 127.6859970  62.5040016
  52.9490013 128.0059967  65.8440018  52.2029991 128.3760071  65.1090012
  53.3129997 128.8809967  66.4229965  51.4510002 127.4639969  67.9390030
  50.1049995 127.8789978  67.4400024  52.1749992 128.4750061  68.7669983
  52.3580017 127.0220032  66.6959991  51.2929993 126.1159973  68.7969971
  51.1399994 124.8679962  68.0970001  51.9480019 124.7119980  67.3499985
  50.1759987 124.8610001  67.5449982  51.1590004 123.5920029  69.0250015
  50.6110001 122.7959976  68.4769974  50.5359993 123.7679977  70.3160019
  49.2540016 124.1149979  70.3030014  48.5460014 124.2210007  69.3079987
  48.7070007 124.2369995  71.7360001  49.0149994 123.3430023  72.3190002
  47.5989990 124.2139969  71.6510010  52.6139984 123.0299988  69.2060013
  52.9630013 122.7119980  68.2009964  52.5449982 122.1080017  69.8219986
  53.5489998 124.0080032  69.7220001  54.0600014 123.7910004  70.9339981
  53.8689995 122.7969971  71.6220016  54.9910011 124.9530029  71.3199997
  54.8959999 125.7730026  70.5770035  56.0279999 124.5559998  71.2860031
  49.1209984 125.5390015  72.4609985  48.5639992 125.5889969  73.4209976
  48.8120003 126.4150009  71.8519974  50.6230011 125.6520004  72.7760010
  50.8170013 126.6009979  73.3190002  51.1759987 125.7119980  71.8140030
  51.2200012 124.4879990  73.5839996  52.3260002 124.5719986  73.5289993
  50.9620018 123.5070038  73.1309967  50.8629990 124.4860001  75.0739975
  49.7960014 124.2060013  75.2060013  51.0060005 125.5100021  75.4800034
  51.7690010 123.5279999  75.8629990  52.8230019 123.8030014  75.6449966
  51.6129990 122.4899979  75.4980011  51.5760002 123.5869980  77.3899994
  51.7319984 124.6370010  77.7170029  52.3829994 122.9830017  77.8570023
  50.2389984 123.0429993  77.8290024  50.0419998 122.0100021  77.5059967
  49.3040009 123.6699982  78.5630035  48.3969994 123.1149979  78.8450012
  49.3989983 125.0630035  79.1309967  48.3870010 125.5149994  79.2149963
  49.9970016 125.7249985  78.4680023  50.0690002 125.0770035  80.5189972
  50.2229996 126.1350021  80.8199997  51.0740013 124.6080017  80.4499969
  49.2649994 124.3889999  81.6320038  49.0359993 123.3399963  81.3479996
  48.2970009 124.9250031  81.7310028  49.9959984 124.3880005  82.9830017
  50.4049988 125.4059982  83.1569977  50.8549995 123.6859970  82.9189987
  49.1259995 124.0120010  84.1930008  49.7840004 123.9130020  85.0820007
  48.6529999 123.0230026  84.0100021  48.0369987 125.0520020  84.5029984
  47.3310013 125.0630035  83.6449966  48.5089989 126.0559998  84.5709991
  47.2169991 124.7990036  85.7750015  46.4949989 125.6340027  85.9010010
  47.9010010 124.8229980  86.6500015  46.4510002 123.4779968  85.7679977
  47.1440010 122.6259995  85.5979996  45.6819992 123.4670029  84.9670029
  45.9510002 123.3150024  86.7470016  54.6899986 125.4710007  72.7379990
  54.6860008 124.6139984  73.4449997  53.6749992 125.9240036  72.7409973
  55.6870003 126.5159988  73.2570038  55.5690002 127.4509964  72.6669998
  56.7220001 126.1449966  73.0940018  55.5190010 126.8349991  74.7559967
  56.2229996 127.6500015  75.0299988  55.8030014 125.9369965  75.3450012
  54.0940018 127.2460022  75.1660004  53.4039993 126.3939972  74.9850006
  53.7620010 128.0930023  74.5279999  53.9790001 127.6589966  76.6429977
  54.6129990 128.5540009  76.8180008  54.3709984 126.8359985  77.2779999
  52.5340004 127.9700012  77.0660019  51.9239998 127.0459976  76.9649963
  52.1199989 128.7250061  76.3649979  52.3870010 128.5130005  78.5000000
  51.3199997 128.7760010  78.6610031  52.9860001 129.4429932  78.6009979
  52.8079987 127.5250015  79.5999985  53.9020004 127.3410034  79.5380020
  52.2910004 126.5569992  79.4290009  52.4650002 128.0119934  81.0179977
  51.3699989 128.1880035  81.0810013  52.9809990 128.9759979  81.2119980
  52.8639984 127.0029984  82.1070023  53.9679985 126.8759995  82.0859985
  52.4059982 126.0210037  81.8629990  52.4140015 127.4120026  83.5199966
  51.3100014 127.5319977  83.5009995  52.8650017 128.3939972  83.7779999
  52.7649994 126.3889999  84.6169968  52.3889999 125.3899994  84.3089981
  52.2420006 126.6709976  85.5559998  54.2680016 126.2809982  84.9059982
  54.6500015 127.2669983  85.2490005  54.7729988 126.0479965  83.9440002
  54.6409988 125.2040024  85.9229965  55.7400017 125.1940002  86.0889969
  54.3370018 124.2020035  85.5500031  54.1370010 125.3820038  86.8970032
  84.9100037 138.2200012  64.3740005  85.1859970 138.9920044  65.6470032
  84.2480011 139.4010010  65.9940033  85.8270035 139.8280029  65.4110031
  84.3130035 139.1150055  63.3380013  84.9560013 139.9589996  63.1380005
  84.1699982 138.5709991  62.4160004  83.3479996 139.4730072  63.6640015
  86.1819992 137.6380005  63.8569984  86.0000000 136.9539948  63.0410004
  86.8519974 138.4179993  63.5270004  86.6689987 137.1190033  64.6689987
  83.9400024 137.1139984  64.6380005  82.9820023 137.5039978  64.9489975
  84.3249969 136.4640045  65.4100037  83.7819977 136.5319977  63.7420006
  85.8509979 138.2180023  66.8160019  85.2760010 137.2839966  66.9970016
  85.7360001 138.8379974  67.7300034  88.4199982 138.7510071  67.1790009
  88.0660019 140.2030029  67.1630020  89.6809998 138.3999939  66.4550018
  87.2190018 137.8829956  66.5520020  88.5650024 138.2799988  68.7109985
  88.3700027 136.9029999  69.0950012  89.3010025 136.4889984  69.5370026
  88.0910034 136.2429962  68.2450027  87.2249985 136.6999969  70.1589966
  86.9380035 135.6289978  70.0759964  86.1039963 137.5670013  69.8820038
  84.9329987 137.1260071  70.3020020  84.7080002 136.0130005  70.7600021
  83.8809967 138.2189941  70.1019974  83.1320038 137.8139954  69.3880005
  84.3460007 139.1219940  69.6510010  87.6869965 136.8869934  71.6449966
  88.4879990 136.1519928  71.8750000  86.8320007 136.6309967  72.3069992
  88.0820007 138.2460022  71.9290009  89.3919983 138.5149994  71.8489990
  90.2710037 137.6620026  71.7539978  89.5960007 140.0559998  71.7969971
  88.6330032 140.5469971  72.0510025  89.8850021 140.3009949  70.7529984
  83.2170029 138.5740051  71.4420013  82.8629990 137.6399994  71.9290009
  82.3259964 139.2160034  71.2740021  84.1900024 139.3209991  72.3639984
  84.3300018 140.3540039  71.9800034  85.1849976 138.8280029  72.3219986
  83.7509995 139.3809967  73.8349991  82.8030014 139.9539948  73.9160004
  84.5360031 139.9279938  74.4000015  83.5690002 138.0160065  74.5169983
  82.6800003 137.5090027  74.0859985  83.3669968 138.1779938  75.5979996
  84.7809982 137.0910034  74.3600006  85.6849976 137.6309967  74.7149963
  84.9140015 136.8760071  73.2770004  84.6389999 135.7610016  75.1119995
  83.7190018 135.2480011  74.7580032  84.4789963 135.9940033  76.1859970
  85.8349991 134.8589935  74.9209976  85.7850037 134.1909943  74.0490036
  86.8970032 134.7839966  75.7450027  87.6930008 134.0559998  75.5299988
  87.0989990 135.6080017  76.9929962  86.7239990 136.6430054  76.8399963
  88.1809998 135.6920013  77.2330017  86.3639984 135.0319977  78.2160034
  86.7639999 134.0240021  78.4570007  85.2890015 134.9160004  77.9609985
  86.4570007 135.9179993  79.4660034  86.1480026 136.9539948  79.2089996
  87.5210037 135.9550018  79.7829971  85.6110001 135.4129944  80.6460037
  85.9250031 135.9570007  81.5619965  85.8399963 134.3370056  80.8020020
  84.0940018 135.5839996  80.4860001  83.6009979 135.0310059  81.3130035
  83.7590027 135.1269989  79.5299988  83.6289978 137.0449982  80.5559998
  84.0630035 137.6210022  79.7109985  84.0110016 137.4830017  81.5029984
  82.1050034 137.1790009  80.5410004  81.7080002 136.5189972  81.3430023
  81.7119980 136.8009949  79.5729980  81.6029968 138.6020050  80.7779999
  81.9260025 138.9530029  81.7809982  80.4940033 138.6239929  80.7279968
  82.0049973 139.2920074  80.0039978  90.7080002 140.4739990  72.7839966
  91.6569977 139.9730072  72.4960022  90.8519974 141.5720062  72.6900024
  90.3850021 140.1300049  74.2519989  91.2620010 140.4199982  74.8679962
  90.2600021 139.0290070  74.3339996  89.1299973 140.8410034  74.7959976
  88.2289963 140.5070038  74.2389984  89.2710037 141.9320068  74.6380005
  88.9349976 140.5850067  76.2979965  88.1829987 141.3029938  76.6910019
  89.8980026 140.7929993  76.8099976  88.4639969 139.1560059  76.6330032
  89.0800018 138.4140015  76.0810013  87.4150009 139.0410004  76.2850037
  88.5410004 138.8240051  78.1350021  87.9879990 137.8750000  78.3040009
  88.0299988 139.6230011  78.7139969  89.9759979 138.6280060  78.6510010
  90.5390015 139.5709991  78.4860001  90.4769974 137.8289948  78.0640030
  90.0500031 138.2810059  80.1439972  89.6979980 137.2389984  80.3040009
  89.3669968 138.9559937  80.7020035  91.4700012 138.4369965  80.7180023
  91.7789993 139.4989929  80.6119995  92.1780014 137.8229980  80.1220016
  91.5999985 138.0359955  82.1930008  92.6259995 138.2790070  82.5439987
  91.4749985 136.9340057  82.2649994  90.5729980 138.6710052  83.1439972
  90.7939987 138.3179932  84.1740036  89.5640030 138.2920074  82.8740005
  90.4889984 140.2039948  83.1480026  90.2919998 140.5570068  82.1129990
  91.4680023 140.6300049  83.4560013  89.3669968 140.7519989  84.0510025
  88.4089966 140.5429993  83.5289993  89.4680023 141.8560028  84.1149979
  89.2679977 140.1620026  85.4599991  90.1930008 140.3600006  86.0419998
  89.1029968 139.0639954  85.4150009  88.4029999 140.6060028  85.9980011
  60.8829994  65.8440018  65.0070038  61.4070015  66.9309998  65.9250031
  61.3689995  66.5709991  66.9420013  60.7369995  67.7760010  65.8669968
  61.7779999  64.6529999  65.0550003  61.5419998  63.9519997  64.2679977
  62.7939987  65.0029984  64.9390030  61.7150002  64.1630020  66.0159988
  59.5000000  65.4449997  65.4010010  59.1259995  64.6930008  64.7220001
  59.4780006  65.0380020  66.4010010  58.8400002  66.2990036  65.3590012
  60.8610001  66.3460007  63.5999985  61.8629990  66.6210022  63.3030014
  60.2249985  67.2139969  63.5050011  60.5040016  65.5830002  62.9249992
  62.8520012  67.4400024  65.6709976  63.0120010  68.3119965  66.3389969
  62.9090004  67.8010025  64.6220016  65.3610001  66.7819977  65.5520020
  65.8229980  67.9710007  66.3359985  65.4759979  66.8939972  64.0640030
  63.8370018  66.4329987  65.9359970  66.1829987  65.4759979  66.0049973
  66.4589996  65.1920013  67.3830032  66.3099976  66.0630035  68.0559998
  67.5299988  64.9100037  67.4670029  65.6200027  63.9949989  67.9290009
  65.5579987  63.2560005  67.1019974  64.3130035  64.4700012  68.3199997
  63.3479996  63.5699997  68.2570038  63.4840012  62.3919983  67.9580002
  61.9949989  64.2440033  68.5179977  61.9500008  65.1579971  67.8889999
  61.1990013  63.5460014  68.1809998  66.3359985  63.2879982  69.1240005
  67.3389969  62.9580002  68.7809982  65.7570038  62.3689995  69.3610001
  66.4850006  64.1959991  70.2399979  65.7929993  63.8909988  71.3410034
  65.3499985  62.7890015  71.6149979  65.6190033  65.1750031  72.1669998
  65.2799988  65.9629974  71.4609985  66.6070023  65.4739990  72.5780029
  61.7659988  64.6250000  69.9929962  60.7700005  65.1129990  70.0609970
  62.5239983  65.3629990  70.3290024  61.7760010  63.4119987  70.9290009
  62.8310013  63.1040001  71.0899963  61.2529984  62.5559998  70.4530029
  61.1230011  63.6889992  72.2910004  61.2490005  64.7580032  72.5650024
  61.6539993  63.0880013  73.0599976  59.6409988  63.2849998  72.3310013
  59.5810013  62.2130013  72.0490036  59.0680008  63.8670006  71.5780029
  58.9869995  63.4440002  73.7149963  59.6769981  63.0110016  74.4710007
  58.0470009  62.8520012  73.7330017  58.6590004  64.9089966  74.0739975
  57.8820000  65.2789993  73.3710022  59.5719986  65.5139999  73.8860016
  58.1790009  65.0640030  75.5000000  57.1440010  64.7350006  75.6770020
  58.8959999  65.5240021  76.5459976  58.4269981  65.5469971  77.5410004
  60.3380013  65.9810028  76.5260010  60.4630013  66.8840027  77.1610031
  60.6559982  66.2760010  75.5029984  61.3149986  64.8809967  77.0049973
  62.3540001  65.2180023  76.8040009  61.1479988  63.9640007  76.4000015
  61.2109985  64.5169983  78.4980011  61.8269997  63.6100006  78.6790009
  60.1609993  64.2539978  78.7480011  61.7099991  65.6250000  79.4380035
  61.1500015  66.5609970  79.2289963  62.7799988  65.8130035  79.2050018
  61.5870018  65.3140030  80.9400024  62.2249985  66.0299988  81.5000000
  61.9830017  64.2959976  81.1429977  60.1510010  65.4390030  81.4739990
  59.5169983  64.6689987  80.9840012  59.7420006  66.4300003  81.1839981
  60.0439987  65.2919998  82.9970016  60.6549988  66.0859985  83.4759979
  60.4770012  64.3099976  83.2860031  58.6090012  65.3759995  83.5220032
  58.5909996  65.2740021  84.6279984  57.9910011  64.5630035  83.0839996
  58.1520004  66.3519974  83.2509995  64.5599976  65.0370026  73.2829971
  63.7350006  64.3799973  72.9349976  64.1149979  66.0360031  73.4779968
  65.1019974  64.5009995  74.6159973  65.6880035  63.5719986  74.4479980
  64.2229996  64.2300034  75.2389984  65.9499969  65.5240021  75.3929977
  65.3889999  66.4800034  75.4649963  66.8840027  65.7239990  74.8280029
  66.3239975  65.0749969  76.8180008  67.0490036  65.8040009  77.2389984
  66.8339996  64.0889969  76.7639999  65.1240005  64.9840012  77.7750015
  64.3880005  64.2470016  77.3889999  64.6210022  65.9749985  77.8020020
  65.4889984  64.5869980  79.2139969  64.5790024  64.6719971  79.8460007
  66.2399979  65.3069992  79.6029968  66.0240021  63.1510010  79.3420029
  66.9720001  63.0709991  78.7669983  65.2890015  62.4560013  78.8830032
  66.2799988  62.7019997  80.7919998  66.6579971  61.6570015  80.7839966
  65.3119965  62.7039986  81.3359985  67.2890015  63.5839996  81.5469971
  66.9199982  64.6320038  81.5579987  68.2519989  63.5830002  80.9940033
  67.5619965  63.1500015  82.9980011  68.3099976  63.8520012  83.4240036
  68.0179977  62.1360016  82.9960022  66.3239975  63.1419983  83.9140015
  66.6650009  63.0569992  84.9680023  65.7129974  62.2439995  83.6809998
  65.4240036  64.3779984  83.7590027  64.8349991  64.2750015  82.8219986
  66.0640030  65.2789993  83.6510010  64.4639969  64.6259995  84.9270020
  63.8180008  65.4840012  84.6399994  65.0630035  64.9290009  85.8119965
  63.5530014  63.4679985  85.3199997  62.9150009  63.7470016  86.1859970
  64.1569977  62.5800018  85.6029968  62.8909988  63.1899986  84.4729996
 133.8970032 108.2419968  64.6679993 132.9700012 107.3949966  63.8209991
 133.5670013 106.7139969  63.2319984 132.4589996 108.0469971  63.1279984
 134.4270020 107.4300003  65.8010025 134.9680023 106.5670013  65.4420013
 135.0729980 108.0220032  66.4319992 133.5839996 107.0970001  66.3870010
 135.0220032 108.7880020  63.8530006 134.6459961 109.3870010  63.0369987
 135.6569977 109.4140015  64.4619980 135.6260071 107.9909973  63.4449997
 133.1159973 109.3730011  65.2539978 132.2630005 108.9449997  65.7590027
 132.7519989 110.0350037  64.4820023 133.7089996 109.9339981  65.9609985
 131.8959961 106.5589981  64.5739975 132.4290009 105.7710037  65.1470032
 131.2779999 106.0350037  63.8139992 130.7559967 106.9290009  66.9120026
 132.0480042 106.7480011  67.6510010 129.8309937 105.7509995  66.9020004
 131.0399933 107.3700027  65.3850021 129.9839935 108.2070007  67.5309982
 128.8880005 108.7409973  66.7649994 128.2160034 107.9400024  66.3899994
 129.2799988 109.2770004  65.8740005 127.9729996 109.7490005  67.5619965
 127.4739990 110.3919983  66.8050003 128.6790009 110.6039963  68.4850006
 129.6399994 111.3610001  67.9609985 129.9010010 111.4810028  66.7730026
 130.2850037 112.2149963  69.0660019 129.5410004 112.3970032  69.8710022
 130.5480042 113.1940002  68.6110001 126.8079987 109.0049973  68.3089981
 126.1839981 108.5240021  67.5270004 126.1630020 109.7630005  68.8030014
 127.2760010 107.9749985  69.2109985 127.3700027 108.3030014  70.5000000
 126.9329987 109.3239975  71.0120010 128.0700073 107.1620026  71.2490005
 129.0480042 106.9720001  70.7580032 127.4359970 106.2549973  71.1520004
 131.5440063 111.5640030  69.6630020 132.0169983 112.3020020  70.3450012
 132.2749939 111.3199997  68.8639984 131.2230072 110.3040009  70.4800034
 130.9210052 109.4950027  69.7809982 130.3600006 110.5029984  71.1500015
 132.4109955 109.8300018  71.3259964 132.5890045 110.5650024  72.1409988
 133.3159943 109.8079987  70.6819992 132.2180023 108.4329987  71.9290009
 132.0760040 107.7109985  71.0960007 131.2989960 108.4079971  72.5530014
 133.4199982 107.9899979  72.7770004 133.4290009 108.5910034  73.7119980
 134.3480072 108.2180023  72.2109985 133.4019928 106.4850006  73.1169968
 133.2050018 105.9629974  72.1559982 132.5149994 106.2919998  73.7570038
 134.6210022 105.8450012  73.7429962 134.7189941 104.7809982  73.4810028
 135.5559998 106.3460007  74.5739975 136.3450012 105.6630020  74.9240036
 135.6470032 107.7249985  75.1750031 135.4669952 108.5159988  74.4160004
 136.6730042 107.8929977  75.5670013 134.6569977 107.9199982  76.3369980
 134.7920074 107.0960007  77.0699997 133.6150055 107.8619995  75.9540024
 134.8439941 109.2590027  77.0660019 134.7290039 110.0849991  76.3320007
 135.8789978 109.3059998  77.4670029 133.8450012 109.4879990  78.2139969
 132.8249969 109.5680008  77.7789993 134.0749969 110.4580002  78.7050018
 133.8229980 108.3830032  79.2850037 133.5279999 107.4169998  78.8219986
 133.0350037 108.6389999  80.0260010 135.1499939 108.2030029  80.0350037
 135.4400024 109.1809998  80.4749985 135.9440002 107.9039993  79.3170013
 135.0700073 107.1630020  81.1600037 134.8249969 106.1729965  80.7210007
 134.2270050 107.4430008  81.8270035 136.3439941 107.0520020  81.9990005
 136.1979980 106.3209991  82.8229980 136.6009979 108.0370026  82.4449997
 137.1979980 106.7160034  81.3720016 128.2920074 107.4789963  72.7399979
 127.3119965 107.6930008  73.2170029 128.9239960 108.3870010  72.8330002
 128.9620056 106.3219986  73.4980011 129.9759979 106.1419983  73.0820007
 128.3580017 105.4049988  73.3290024 129.0630035 106.5510025  75.0149994
 129.3480072 105.5950012  75.5049973 128.0559998 106.8330002  75.3909988
 130.0859985 107.6230011  75.4300003 129.8869934 108.5680008  74.8799973
 131.0980072 107.2720032  75.1370010 130.0939941 107.9250031  76.9380035
 130.9949951 108.5289993  77.1750031 130.1710052 106.9680023  77.4970016
 128.8589935 108.7070007  77.4120026 127.9430008 108.1259995  77.1679993
 128.8059998 109.6660004  76.8550034 128.8439941 109.0169983  78.9150009
 128.0180054 109.7310028  79.1200027 129.7960052 109.5149994  79.1999969
 128.6519928 107.7829971  79.8000031 129.5359955 107.1250000  79.6610031
 127.7580032 107.2160034  79.4619980 128.5209961 108.1029968  81.2959976
 128.7980042 109.1640015  81.4729996 129.2500000 107.4759979  81.8519974
 127.1210022 107.8440018  81.8710022 126.7539978 106.8619995  81.5039978
 126.4410019 108.6289978  81.4789963 127.0640030 107.8300018  83.4100037
 126.0029984 107.7610016  83.7310028 127.5879974 106.9199982  83.7730026
 127.7040024 109.0510025  84.0810013 128.7610016 109.1240005  83.7450027
 127.1880035 109.9800034  83.7559967 127.7089996 108.9680023  85.6080017
 128.0119934 107.9449997  85.9179993 126.6699982 109.1129990  85.9739990
 128.6470032 109.9660034  86.2720032 128.3589935 111.0059967  86.0070038
 129.6900024 109.7929993  85.9319992 128.6049957 109.8639984  87.3779984
  63.2659988  74.5230026  67.1019974  63.8790016  75.7890015  66.5510025
  63.1629982  76.2509995  65.8870010  64.7480011  75.5270004  65.9660034
  61.9140015  74.8550034  67.6429977  61.4650002  74.0080032  68.1399994
  62.0349998  75.6640015  68.3479996  61.2540016  75.2129974  66.8669968
  63.1650009  73.4649963  66.0550003  62.5760002  73.7949982  65.2119980
  64.1460037  73.1869965  65.6989975  62.7039986  72.5770035  66.4609985
  64.0960007  74.0009995  68.2279968  65.0989990  73.7809982  67.8939972
  63.6590004  73.1039963  68.6429977  64.1470032  74.7539978  69.0009995
  64.3249969  76.8679962  67.5759964  64.6689987  77.7269974  66.9619980
  65.1979980  76.4739990  68.1399994  63.6129990  78.6380005  69.3150024
  62.7630005  78.6610031  70.5459976  63.5019989  79.8330002  68.4240036
  63.2939987  77.2990036  68.4729996  65.1559982  78.4469986  69.7170029
  65.8249969  79.4629974  70.4700012  65.2089996  79.7829971  71.3369980
  66.0240021  80.3519974  69.8349991  67.1839981  78.9359970  71.0289993
  67.8259964  78.7320023  70.1460037  66.9150009  77.7480011  71.8030014
  67.6050034  76.6760025  71.4520035  68.6439972  76.6750031  70.8050003
  66.9069977  75.4179993  71.9729996  66.8700027  75.4710007  73.0820007
  67.5230026  74.5439987  71.6729965  67.9169998  80.0100021  71.8899994
  68.2689972  80.8000031  71.1930008  68.8199997  79.5660019  72.3600006
  67.0319977  80.6179962  72.8489990  66.8249969  79.9219971  73.9639969
  67.5230026  79.0139999  74.3889999  65.5400009  80.4179993  74.6179962
  65.0569992  79.5410004  75.0989990  64.8570023  80.8030014  73.8310013
  65.4850006  75.2799988  71.3840027  65.5370026  75.3899994  70.2799988
  64.8479996  76.1090012  71.7600021  64.8069992  73.9390030  71.7099991
  65.3750000  73.1250000  71.2119980  63.7859993  73.9489975  71.2720032
  64.7030029  73.6149979  73.2119980  65.7310028  73.5189972  73.6220016
  64.2050018  72.6289978  73.3349991  63.9459991  74.6600037  74.0490036
  64.3990021  75.6620026  73.8960037  64.0739975  74.4049988  75.1220016
  62.4379997  74.7269974  73.7509995  62.0289993  73.6979980  73.8440018
  62.2760010  75.0609970  72.7040024  61.6590004  75.6330032  74.7279968
  61.8969994  75.3000031  75.7610016  60.5730019  75.4420013  74.5879974
  61.9290009  77.1039963  74.5390015  61.3660011  77.5790024  73.7229996
  62.7779999  77.8529968  75.2649994  62.8779984  78.9219971  75.0230026
  63.6529999  77.3799973  76.4010010  64.7149963  77.5839996  76.1460037
  63.5789986  76.2850037  76.5739975  63.3440018  78.0910034  77.7279968
  63.2620010  79.1869965  77.5650024  64.2070007  77.9209976  78.4069977
  62.0800018  77.5859985  78.4449997  62.2890015  76.5800018  78.8690033
  61.2550011  77.4479980  77.7139969  61.6220016  78.5240021  79.5719986
  60.7490005  78.0830002  80.0989990  61.2929993  79.4830017  79.1190033
  62.7260017  78.8479996  80.5899963  62.3750000  79.7139969  81.1920013
  63.6389999  79.1859970  80.0540009  63.0750008  77.6630020  81.4940033
  62.9930000  76.7269974  80.9000015  62.3320007  77.5940018  82.3170013
  64.4950027  77.6979980  82.0619965  64.6439972  78.6169968  82.6679993
  65.2109985  77.7419968  81.2139969  64.8079987  76.4690018  82.9179993
  65.8629990  76.4850006  83.2659988  64.6409988  75.5370026  82.3359985
  64.1389999  76.4390030  83.8050003  65.7990036  81.5019989  75.6790009
  66.2919998  82.3799973  75.2089996  66.4830017  81.0930023  76.4540024
  64.4919968  81.9530029  76.3430023  63.9930000  81.0670013  76.7890015
  63.8110008  82.3499985  75.5589981  64.6650009  83.0270004  77.4290009
  63.6590004  83.2399979  77.8509979  65.0439987  83.9599991  76.9580002
  65.5899963  82.6429977  78.5950012  65.6699982  83.5110016  79.2839966
  66.6080017  82.4349976  78.2040024  65.0830002  81.4359970  79.3990021
  64.9509964  80.5630035  78.7249985  64.0849991  81.6930008  79.8140030
  66.0139999  81.0260010  80.5510025  65.4570007  80.3219986  81.2050018
  66.2699966  81.9240036  81.1539993  67.3030014  80.3310013  80.0759964
  67.8199997  80.9909973  79.3479996  67.0299988  79.3939972  79.5439987
  68.2919998  80.0019989  81.2080002  68.5670013  80.9459991  81.7249985
  69.2180023  79.5790024  80.7649994  67.7450027  79.0070038  82.2419968
  67.5189972  78.0400009  81.7440033  66.7959976  79.4079971  82.6559982
  68.6969986  78.7659988  83.4209976  68.9840012  79.7519989  83.8440018
  69.6240005  78.2639999  83.0670013  68.0390015  77.9309998  84.5279999
  67.9000015  76.8870010  84.1750031  67.0329971  78.3550034  84.7340012
  68.8349991  77.9319992  85.8389969  69.0579987  78.9830017  86.1210022
  69.8040009  77.4100037  85.6859970  68.0630035  77.2720032  86.9889984
  67.8649979  76.2099991  86.7300034  67.0800018  77.7799988  87.0830002
  68.7880020  77.3450012  88.3339996  68.1800003  76.8679962  89.1320038
  68.9690018  78.4029999  88.6179962  69.7689972  76.8259964  88.2789993
  59.2760010 108.6790009  65.3229980  59.8619995 109.1780014  64.0139999
  59.1290016 109.0410004  63.2330017  60.7019997 108.5490036  63.7620010
  58.0750008 109.4830017  65.6910019  57.6899986 109.1989975  66.6589966
  58.3289986 110.5329971  65.7070007  57.2919998 109.3610001  64.9570007
  58.8660011 107.2470016  65.1930008  58.1150017 107.1289978  64.4250031
  59.7039986 106.6169968  64.9349976  58.4339981 106.8840027  66.1129990
  60.2919998 108.8059998  66.4079971  61.1759987 108.2310028  66.1729965
  59.8889999 108.4759979  67.3539963  60.5810013 109.8420029  66.5000000
  60.3230019 110.6600037  63.9560013  61.0519981 110.7529984  63.1230011
  60.8670006 110.9079971  64.8919983  58.9510002 112.8690033  64.5230026
  58.1080017 112.5449982  65.7119980  58.4059982 113.8949966  63.5789986
  59.2210007 111.5270004  63.6930008  60.4039993 113.3489990  65.0240021
  60.4780006 114.5739975  65.7740021  59.5970001 114.7229996  66.4339981
  60.5260010 115.4359970  65.0749969  61.7290001 114.6529999  66.7070007
  62.6339989 114.6029968  66.0630035  61.6969986 113.5989990  67.6819992
  62.2449989 112.4390030  67.3519974  62.9339981 112.2080002  66.3560028
  61.7900009 111.4079971  68.4010010  60.7490005 111.1279984  68.1330032
  61.7680016 111.9059982  69.3939972  61.7509995 116.0270004  67.4479980
  60.9129982 116.0070038  68.1780014  61.5159988 116.8140030  66.6989975
  63.0439987 116.3050003  68.0149994  63.2830009 116.2659988  69.3430023
  64.3960037 116.0500031  69.8170013  62.1380005 116.7440033  70.2409973
  61.3069992 117.2300034  69.6880035  62.5929985 117.5390015  70.8700027
  62.6510010 110.1259995  68.4670029  62.7980003 109.7089996  67.4469986
  62.0800018 109.3730011  69.0510025  64.0260010 110.2850037  69.1449966
  64.6969986 110.8450012  68.4580002  64.4599991 109.2710037  69.2779999
  64.0550003 111.0039978  70.5100021  63.8660011 112.0859985  70.3420029
  65.0770035 110.9110031  70.9359970  63.0460014 110.5210037  71.5650024
  62.0200005 110.7450027  71.2020035  63.2080002 111.1149979  72.4899979
  63.1119995 109.0319977  71.9229965  64.1669998 108.7699966  72.1539993
  62.7980003 108.4270020  71.0459976  62.2459984 108.6600037  73.1480026
  62.7540016 109.0739975  74.0449982  62.2649994 107.5530014  73.2500000
  60.8120003 109.1340027  73.0930023  60.4430008 109.4059982  72.0930023
  59.9959984 109.2850037  74.1549988  58.9679985 109.6399994  73.9899979
  60.3400002 108.9700012  75.5930023  59.7400017 109.6179962  76.2679977
  61.4099998 109.1770020  75.8079987  60.0530014 107.4919968  75.9240036
  60.6049995 106.8629990  75.1930008  58.9669991 107.2910004  75.7979965
  60.4760017 107.0019989  77.3229980  61.5760002 107.0989990  77.4469986
  60.2449989 105.9150009  77.3479996  59.7210007 107.6399994  78.5059967
  59.6349983 106.8850021  79.3170013  58.6870003 107.8840027  78.1829987
  60.3810005 108.8960037  79.1080017  59.7010002 109.3170013  79.8789978
  60.4809990 109.6569977  78.3050003  61.7669983 108.6780014  79.7490005
  62.4589996 108.2699966  78.9820023  62.1679993 109.6689987  80.0530014
  61.7869987 107.7529984  80.9789963  62.8499985 107.5500031  81.2320023
  61.3180008 106.7819977  80.7119980  61.1010017 108.3209991  82.2229996
  61.5859985 109.2669983  82.5449982  61.1629982 107.5950012  83.0619965
  60.0289993 108.5299988  82.0189972  61.6609993 115.6439972  71.2080002
  61.3619995 116.1380005  72.1569977  62.4819984 114.9420013  71.4649963
  60.4269981 114.8740005  70.7350006  60.7120018 114.1979980  69.9000015
  59.6759987 115.5989990  70.3539963  59.7599983 114.0579987  71.8550034
  58.8880005 113.5370026  71.4049988  59.3660011 114.7500000  72.6299973
  60.6580009 112.9919968  72.5070038  61.4220009 112.6819992  71.7620010
  60.0289993 112.1039963  72.7330017  61.3670006 113.3889999  73.8209991
  62.0489998 114.2460022  73.6360016  61.9860001 112.5220032  74.1350021
  60.4090004 113.7500000  74.9670029  59.5989990 112.9909973  75.0139999
  59.9309998 114.7249985  74.7289963  61.0489998 113.8489990  76.3649979
  60.2960014 114.3150024  77.0360031  61.9389992 114.5139999  76.3379974
  61.4189987 112.4769974  76.9520035  62.3180008 112.0770035  76.4359970
  60.5789986 111.7829971  76.7330017  61.6339989 112.4440002  78.4749985
  61.6650009 111.3700027  78.7580032  60.7669983 112.8929977  79.0049973
  62.9480019 113.0660019  78.9720001  62.7910004 114.1360016  79.2259979
  63.6910019 113.0199966  78.1470032  63.5499992 112.3180008  80.1750031
  64.5550003 112.7379990  80.3919983  63.6889992 111.2529984  79.8939972
  62.7159996 112.3740005  81.4670029  61.6940002 111.9889984  81.2669983
  62.6320000 113.4309998  81.7990036  63.3460007 111.5360031  82.5889969
  64.3929977 111.8750000  82.7350006  63.3889999 110.4830017  82.2350006
  62.6269989 111.5770035  83.9349976  61.5660019 111.2689972  83.8190002
  62.6570015 112.6009979  84.3639984  63.1160011 110.8809967  84.6500015
  89.8399963 109.3560028  66.2119980  89.1279984 109.4280014  67.5490036
  89.2470016 110.4260025  67.9430008  89.6259995 108.7620010  68.2379990
  89.7750015 107.9649963  65.6760025  90.3290024 107.2669983  66.2850037
  88.7399979 107.6559982  65.7050018  90.1250000 107.9160004  64.6549988
  89.1269989 110.2269974  65.2310028  88.1119995 109.8700027  65.1330032
  89.0830002 111.2529984  65.5650024  89.5859985 110.1750031  64.2549973
  91.2620010 109.7809982  66.3539963  91.8000031 109.6460037  65.4270020
  91.7559967 109.2160034  67.1309967  91.3229980 110.8190002  66.6480026
  87.6149979 109.0759964  67.5670013  87.0899963 109.8059998  66.9150009
  87.2450027 109.2340012  68.6019974  85.9499969 107.3359985  66.5289993
  85.8109970 105.8450012  66.5090027  85.8130035 108.0029984  65.1969986
  87.3669968 107.7190018  67.1790009  84.8590012 107.9589996  67.5400009
  84.7149963 107.3550034  68.8359985  85.6910019 107.0820007  69.2919998
  84.1159973 106.4240036  68.7419968  83.9619980 108.2770004  69.8529968
  83.1449966 108.7750015  69.2890015  84.8639984 109.2669983  70.4049988
  84.2429962 110.2340012  71.0859985  83.0329971 110.4059982  71.1480026
  85.2590027 111.1350021  71.7910004  85.9830017 110.5029984  72.3489990
  84.6959991 111.7539978  72.5220032  83.2750015 107.4120026  70.9629974
  82.5039978 106.8000031  70.4479980  82.7210007 108.0650024  71.6709976
  84.1880035 106.5159988  71.6350021  84.8369980 107.0289993  72.6869965
  84.6460037 108.1309967  73.1790009  85.8349991 105.9860001  73.2089996
  86.0530014 105.2549973  72.4020004  85.3600006 105.4599991  74.0640030
  85.9840012 112.0479965  70.7870026  85.2440033 112.4580002  70.0670013
  86.7129974 111.4410019  70.2080002  86.6989975 113.2389984  71.4469986
  85.9349976 113.9209976  71.8779984  87.2350006 113.8040009  70.6539993
  87.7009964 112.8799973  72.5589981  87.1610031 112.5000000  73.4520035
  88.2190018 113.8160019  72.8590012  88.7549973 111.8430023  72.1399994
  88.9909973 112.0220032  71.0690002  88.3259964 110.8219986  72.2149963
  90.0660019 111.9369965  72.9410019  90.3949966 112.9980011  72.9169998
  90.8539963 111.3420029  72.4329987  89.9589996 111.5090027  74.4189987
  89.0970001 112.0419998  74.8750000  90.8679962 111.8779984  74.9390030
  89.8659973 110.0120010  74.5940018  90.7310028 109.4580002  74.1999969
  88.8619995 109.3079987  75.1480026  88.9589996 108.2129974  75.1969986
  87.5739975 109.8229980  75.7419968  86.7119980 109.3840027  75.1949997
  87.4779968 110.9270020  75.6610031  87.4520035 109.4339981  77.2259979
  88.2330017 109.9800034  77.7979965  87.6370010 108.3450012  77.3519974
  86.0830002 109.7600021  77.8470001  85.3270035 109.0220032  77.5039978
  85.7720032 110.7630005  77.4830017  86.1179962 109.8180008  79.3850021
  85.1569977 110.2200012  79.7710037  86.9079971 110.5459976  79.6660004
  86.4179993 108.4779968  80.0729980  87.0839996 107.8840027  79.4110031
  85.4759979 107.9020004  80.1979980  87.1480026 108.5979996  81.4209976
  88.1259995 109.0950012  81.2480011  87.3440018 107.5699997  81.7939987
  86.3919983 109.3740005  82.5039978  85.4670029 108.8170013  82.7659988
  86.0820007 110.3570023  82.0879974  87.2050018 109.6259995  83.7740021
  86.6060028 110.2060013  84.5080032  88.1250000 110.1999969  83.5319977
  87.5019989 108.6620026  84.2389984  87.1399994 106.6600037  73.6709976
  86.9219971 107.2870026  74.5609970  87.5039978 107.3330002  72.8659973
  88.2760010 105.6849976  74.0169983  89.1940002 106.2770004  74.2210007
  88.4830017 105.0520020  73.1279984  88.0220032 104.7720032  75.2300034
  88.9069977 104.1110001  75.3470001  87.1439972 104.1250000  75.0199966
  87.8040009 105.5070038  76.5650024  86.8369980 106.0540009  76.5319977
  88.6119995 106.2570038  76.6969986  87.8170013 104.5579987  77.7760010
  88.7949982 104.0319977  77.7929993  87.0210037 103.7919998  77.6610031
  87.6169968 105.2500000  79.1299973  86.6159973 105.7320023  79.1620026
  88.3820038 106.0510025  79.2180023  87.7760010 104.3170013  80.3450012
  87.9229965 104.9390030  81.2539978  88.7040024 103.7229996  80.1989975
  86.5940018 103.3649979  80.5999985  87.0039978 102.3740005  80.8909988
  86.0139999 103.2239990  79.6630020  85.6529999 103.8290024  81.7289963
  86.2590027 103.9589996  82.6510010  84.9000015 103.0350037  81.9209976
  84.9199982 105.1429977  81.4179993  84.3119965 105.0039978  80.4990005
  85.6770020 105.9270020  81.2040024  84.0189972 105.6640015  82.5500031
  83.2519989 104.9020004  82.8050003  83.4909973 106.5660019  82.1750031
  84.8030014 106.0599976  83.8089981  85.6409988 106.7180023  83.4940033
  85.2450027 105.1539993  84.2760010  83.9779968 106.8229980  84.8509979
  83.0989990 106.2109985  85.1449966  83.6009979 107.7529984  84.3750000
  84.7770004 107.2030029  86.0979996  85.6679993 107.8020020  85.8119965
  85.1240005 106.2919998  86.6309967  84.1529999 107.8069992  86.7910004
 107.3359985 100.0520020  67.7890015 106.5960007 100.6190033  66.5940018
 105.7129974 101.1279984  66.9520035 106.2689972  99.7949982  65.9769974
 107.6930008 101.1360016  68.7500000 108.2500000 100.7389984  69.5869980
 108.3119965 101.8700027  68.2549973 106.8079987 101.6259995  69.1269989
 106.5009995  99.0329971  68.4940033 107.0550003  98.5869980  69.3069992
 105.6090012  99.4769974  68.9100037 106.2129974  98.2399979  67.8199997
 108.5879974  99.3949966  67.3180008 109.2020035  99.0670013  68.1439972
 109.1360016 100.1060028  66.7160034 108.3570023  98.5530014  66.6829987
 107.3700027 101.5960007  65.6679993 107.7610016 102.4250031  66.2959976
 106.6370010 102.0419998  64.9619980 109.7200012 101.6809998  64.4509964
 109.4110031 103.0920029  64.0660019 110.3610001 100.8560028  63.3810005
 108.3909988 100.9300003  64.9209976 110.6750031 101.6429977  65.7460022
 110.5510025 102.6630020  66.7470016 109.5650024 102.6080017  67.2559967
 110.6500015 103.6740036  66.2969971 111.6340027 102.5729980  67.8669968
 112.6320038 102.6070023  67.3799973 111.4729996 101.3919983  68.6780014
 112.1380005 100.3130035  68.3310013 112.9300003 100.2149963  67.4059982
 111.8679962  99.1679993  69.3369980 112.8130035  99.0309982  69.9049988
 111.6900024  98.2379990  68.7549973 111.5729980 103.8239975  68.8020020
 111.6080017 104.7490005  68.1859970 112.5130005 103.7689972  69.3919983
 110.4120026 103.8330002  69.6640015 110.6250000 104.4219971  70.8529968
 111.6169968 105.0790024  71.1419983 109.4479980 104.1709976  71.8010025
 109.5169983 104.9140015  72.6240005 109.5759964 103.1559982  72.2330017
 110.7060013  99.3880005  70.3420029 109.7440033  99.0889969  69.8730011
 110.6179962 100.4580002  70.6269989 110.8889999  98.6220016  71.6589966
 111.7320023  99.0920029  72.2089996 111.1589966  97.5630035  71.4599991
 109.6200027  98.6650009  72.5279999 108.9169998  97.8809967  72.1740036
 109.1210022  99.6470032  72.3840027 109.8720016  98.4950027  74.0360031
 110.5130005  97.6080017  74.2239990 108.8939972  98.3140030  74.5319977
 110.4950027  99.7519989  74.6630020 109.8980026 100.6240005  74.3190002
 111.5250015  99.8870010  74.2669983 110.4990005  99.7870026  76.2030029
 109.4710007  99.5510025  76.5540009 110.7050018 100.8339996  76.5120010
 111.4950027  98.8479996  76.8310013 111.5729980  97.8659973  76.3399963
 112.2549973  99.0810013  77.9189987 112.9240036  98.2779999  78.2600021
 112.2890015 100.3239975  78.7750015 111.5240021 100.2580032  79.5780029
 112.0439987 101.2249985  78.1729965 113.6640015 100.5609970  79.4300003
 113.6380005 101.5459976  79.9430008 114.4260025 100.6370010  78.6250000
 114.1460037  99.5019989  80.4489975 115.2460022  99.4329987  80.3119965
 113.7249985  98.4940033  80.2460022 113.9199982  99.9130020  81.9140015
 112.8539963  99.8140030  82.2099991 114.1750031 100.9919968  81.9749985
 114.8590012  99.1910019  82.8939972 115.0889969  99.8870010  83.7289963
 115.8180008  98.9830017  82.3730011 114.3280029  97.8850021  83.5080032
 115.1800003  97.3789978  84.0110016 113.9560013  97.2050018  82.7119980
 113.2289963  98.1179962  84.5589981 112.2890015  98.3730011  84.0250015
 113.5139999  98.9960022  85.1770020 112.9909973  96.9250031  85.4869995
 112.7389984  96.0159988  84.9010010 112.1500015  97.1389999  86.1809998
 113.8980026  96.7109985  86.0920029 108.0790024 104.3000031  71.1039963
 107.9499969 103.4879990  70.3560028 108.0680008 105.2669983  70.5579987
 106.8799973 104.3020020  72.0650024 106.0199966 104.7030029  71.4879990
 107.0550003 105.0130005  72.9000015 106.4319992 102.9250031  72.6029968
 106.3700027 102.2009964  71.7620010 105.4029999 103.0599976  72.9980011
 107.2620010 102.3150024  73.7500000 108.2440033 101.9670029  73.3639984
 106.7239990 101.4199982  74.1289978 107.5049973 103.2799988  74.9199982
 106.5380020 103.7170029  75.2500000 108.1429977 104.1129990  74.5559998
 108.2089996 102.6439972  76.1240005 109.1019974 102.0950012  75.7580032
 107.5350037 101.9140015  76.6210022 108.6829987 103.6989975  77.1279984
 107.8180008 104.3190002  77.4469986 109.3929977 104.3710022  76.6009979
 109.3850021 103.1439972  78.3740005 110.2320023 102.4990005  78.0569992
 108.6669998 102.5159988  78.9430008 109.9199982 104.2710037  79.2720032
 109.0910034 104.9779968  79.4889984 110.6819992 104.8330002  78.6900024
 110.5540009 103.8180008  80.5970001 111.0749969 104.6839981  81.0589981
 111.3199997 103.0479965  80.3629990 109.5619965 103.2320023  81.6169968
 110.1330032 102.7580032  82.4440002 108.9869995 102.4319992  81.1029968
 108.5510025 104.2229996  82.2190018 107.9960022 104.7210007  81.3949966
 109.0920029 105.0080032  82.7890015 107.5319977 103.5289993  83.1380005
 108.0749969 103.0439987  83.9769974 107.0360031 102.7220001  82.5569992
 106.4580002 104.4639969  83.6999969 105.7460022 103.8990021  84.3389969
 105.8850021 104.9369965  82.8740005 106.9189987 105.2689972  84.3109970
  91.5370026  69.8850021  64.6230011  90.0419998  69.6539993  64.7249985
  89.6460037  69.5360031  63.7270012  89.5839996  70.5370026  65.1470032
  92.2139969  68.6790009  64.0569992  92.0319977  67.8290024  64.6969986
  91.8379974  68.4530029  63.0699997  93.2799988  68.8359985  63.9920006
  91.8270035  71.0589981  63.7439995  92.8919983  71.2320023  63.6889992
  91.4639969  70.8909988  62.7410011  91.3639984  71.9540024  64.1320038
  92.0989990  70.1510010  65.9789963  91.7239990  71.0849991  66.3710022
  93.1780014  70.1760025  65.9619980  91.7600021  69.3690033  66.6439972
  89.5569992  68.4580002  65.5910034  90.0599976  67.5319977  65.2379990
  88.4710007  68.3089981  65.4100037  88.9589996  69.6949997  67.8320007
  88.1729965  70.5800018  66.9179993  89.8809967  70.4049988  68.7720032
  89.8229980  68.6320038  66.9850006  87.9430008  68.8069992  68.7070007
  87.2760010  67.6679993  68.1419983  87.9140015  67.1149979  67.4199982
  86.3769989  68.0110016  67.5849991  86.8089981  66.6009979  69.2060013
  86.0879974  65.9290009  68.6949997  86.1829987  67.1890030  70.3720016
  84.9899979  67.7289963  70.1439972  84.3909988  67.7109985  69.0800018
  84.3880005  68.3600006  71.4140015  83.4130020  67.8560028  71.5889969
  84.1880035  69.4290009  71.1859970  87.9869995  65.6620026  69.6449966
  88.2870026  65.0879974  68.7419968  87.6060028  64.9189987  70.3779984
  89.1389999  66.3840027  70.1279984  89.1470032  66.6819992  71.4280014
  88.4339981  66.1790009  72.2819977  90.2099991  67.7600021  71.6800003
  89.6999969  68.7460022  71.6490021  90.9540024  67.7269974  70.8550034
  85.2470016  68.2549973  72.6930008  86.2030029  68.8000031  72.5439987
  85.4909973  67.1890030  72.8889999  84.5199966  68.8300018  73.9179993
  83.6169968  68.2170029  74.1240005  84.1800003  69.8600006  73.6760025
  85.3899994  68.8870010  75.1849976  84.8219986  69.4120026  75.9830017
  86.3020020  69.4830017  74.9710007  85.8069992  67.5029984  75.7089996
  86.3619995  66.9660034  74.9100037  84.8939972  66.9150009  75.9430008
  86.6949997  67.5739975  76.9599991  86.1350021  68.1080017  77.7580032
  87.5999985  68.1760025  76.7300034  87.1230011  66.1959991  77.5110016
  86.2060013  65.6119995  77.7409973  87.6289978  66.3759995  78.4840012
  88.0250015  65.3899994  76.6029968  87.5159988  64.6100006  76.0179977
  89.3600006  65.5309982  76.4720001  89.9000015  64.8509979  75.7969971
  90.2180023  66.5630035  77.1640015  89.6669998  67.5230026  77.2590027
  91.1200027  66.7819977  76.5540009  90.6679993  66.1559982  78.5780029
  91.3339996  65.2689972  78.5220032  89.7789993  65.8779984  79.1829987
  91.4100037  67.2850037  79.3040009  90.8059998  68.2170029  79.2500000
  92.3659973  67.4779968  78.7730026  91.6959991  66.9759979  80.7770004
  92.1740036  65.9769974  80.8639984  90.7289963  66.9349976  81.3229980
  92.6090012  68.0149994  81.4410019  92.2340012  69.0370026  81.2210007
  93.6230011  67.9229965  80.9970016  92.7070007  67.8479996  82.9629974
  93.6060028  68.3909988  83.3280029  92.8710022  66.7720032  83.1829987
  91.4739990  68.3880005  83.7050018  90.6009979  67.7559967  83.4349976
  91.2720032  69.4110031  83.3209991  91.5879974  68.4609985  85.2300034
  91.7129974  67.4479980  85.6669998  90.6650009  68.9069977  85.6589966
  92.4540024  69.0859985  85.5370026  90.9369965  67.5759964  73.0279999
  91.3369980  66.5410004  73.0749969  90.2239990  67.6969986  73.8720016
  92.1200027  68.5429993  73.2020035  92.7639999  68.4680023  72.3000031
  92.7289963  68.2070007  74.0680008  91.7429962  70.0230026  73.4120026
  91.0289993  70.3330002  72.6179962  92.6620026  70.6350021  73.2890015
  91.1419983  70.3529968  74.7919998  90.2789993  69.6819992  74.9879990
  90.7610016  71.3960037  74.7679977  92.1500015  70.2289963  75.9479980
  93.0130005  70.9069977  75.7740021  92.5410004  69.1890030  75.9560013
  91.5550003  70.5000000  77.3389969  92.2669983  70.1119995  78.0979996
  90.6169968  69.9150009  77.4410019  91.2740021  71.9820023  77.6439972
  90.7190018  72.4240036  76.7900009  92.2360001  72.5299988  77.7399979
  90.4260025  72.1839981  78.9140015  89.4929962  71.5950012  78.7850037
  90.1360016  73.2529984  78.9990005  91.1200027  71.7539978  80.2180023
  91.9020004  72.5019989  80.4710007  91.6289978  70.7779999  80.0650024
  90.1579971  71.5889969  81.4079971  89.5199966  72.4940033  81.5019989
  90.7639999  71.5009995  82.3349991  89.2829971  70.3270035  81.3000031
  89.9629974  69.4580002  81.1689987  88.6409988  70.3860016  80.3949966
  88.3970032  70.0550003  82.5250015  89.0250015  70.0500031  83.4410019
  87.9639969  69.0370026  82.4160004  87.2409973  71.0490036  82.6989975
  86.6529999  71.0749969  81.7570038  87.6579971  72.0660019  82.8600006
  86.3089981  70.6959991  83.8610001  85.8679962  69.6869965  83.7119980
  85.4810028  71.4339981  83.9369965  86.8669968  70.6920013  84.8219986
  70.5699997  68.4479980  63.8089981  71.6640015  69.2389984  64.4919968
  72.4260025  69.4649963  63.7620010  72.1190033  68.6050034  65.2389984
  69.5879974  67.9749985  64.8259964  68.7389984  67.4909973  64.3659973
  70.0490036  67.3239975  65.5540009  69.2470016  68.8440018  65.3690033
  69.8170013  69.3209991  62.8610001  69.3970032  70.1480026  63.4140015
  70.4660034  69.7050018  62.0880013  69.0090027  68.7699966  62.4049988
  71.1220016  67.2910004  63.0470009  71.7139969  66.6460037  63.6800003
  71.7480011  67.6340027  62.2360001  70.3180008  66.7099991  62.6209984
  71.2440033  70.5599976  65.1949997  70.8330002  71.2590027  64.4359970
  72.1699982  71.0220032  65.5989990  70.1979980  71.2389984  67.5270004
  69.2149963  70.6309967  68.4779968  69.9410019  72.6610031  67.1389999
  70.2659988  70.3349991  66.2109985  71.6819992  71.0979996  68.1360016
  72.0719986  71.9359970  69.2330017  71.2239990  72.4560013  69.7279968
  72.7649994  72.7180023  68.8560028  72.8359985  71.1299973  70.3259964
  73.5729980  70.5009995  69.7819977  71.9130020  70.3229980  71.0889969
  72.4810028  69.2389984  71.6190033  73.6409988  68.8899994  71.4300003
  71.4189987  68.4960022  72.4440002  70.5439987  68.3140030  71.7839966
  71.0979996  69.1729965  73.2639999  73.6559982  72.0810013  71.2460022
  74.4400024  72.5189972  70.5920029  74.1910019  71.4970016  72.0250015
  72.8519974  73.1579971  71.7760010  72.3399963  72.9560013  72.9899979
  72.5739975  71.9909973  73.7020035  71.4540024  74.1630020  73.3610001
  71.5849991  74.9530029  72.5910034  71.8069992  74.5630035  74.3349991
  71.8949966  67.1480026  73.0309982  72.1370010  66.4410019  72.2089996
  71.0429993  66.7160034  73.5970001  73.0989990  67.2350006  73.9869995
  74.0309982  67.2710037  73.3830032  73.1419983  66.3059998  74.5950012
  73.1029968  68.4570007  74.9160004  72.1669998  68.4919968  75.5139999
  73.1389999  69.3769989  74.2949982  74.3199997  68.4840012  75.8479996
  75.2129974  68.1520004  75.2750015  74.1579971  67.7600021  76.6750031
  74.6350021  69.8710022  76.4290009  74.9840012  70.5400009  75.6129990
  75.4759979  69.7480011  77.1439972  73.4300003  70.5299988  77.1240005
  72.9309998  69.7509995  77.7389984  72.6979980  70.8410034  76.3479996
  73.8570023  71.6760025  78.0029984  74.5739975  71.3949966  78.7880020
  73.5029984  72.9690018  77.9000015  73.9209976  73.6770020  78.6299973
  72.5520020  73.5999985  76.9160004  71.8560028  72.8519974  76.4810028
  73.1320038  74.0410004  76.0770035  71.7269974  74.7259979  77.5759964
  71.0999985  75.2220001  76.8040009  72.4229965  75.4919968  77.9810028
  70.8160019  74.2310028  78.7119980  71.4169998  73.5830002  79.3860016
  70.0029984  73.6019974  78.2900009  70.2220001  75.3679962  79.5569992
  69.5169983  75.9489975  78.9250031  71.0370026  76.0559998  79.8659973
  69.4779968  74.8740005  80.8130035  68.6780014  74.1819992  80.4720001
  68.9929962  75.7399979  81.3099976  70.3410034  74.1269989  81.8479996
  70.8089981  73.2379990  81.3750000  69.6780014  73.7470016  82.6549988
  71.4380035  74.9850006  82.4940033  70.9570007  75.8300018  83.0319977
  72.0830002  75.4150009  81.6989975  72.3180008  74.1940002  83.4639969
  73.0490036  74.8619995  83.9680023  72.8779984  73.4059982  82.9160004
  71.6930008  73.7009964  84.2389984  69.9619980  73.7789993  73.4459991
  69.6920013  73.1760025  72.5520020  69.3399963  74.6989975  73.4280014
  69.6330032  72.9950027  74.7210007  69.6750031  73.6620026  75.6090012
  70.4280014  72.2320023  74.8629990  68.2809982  72.2669983  74.6790009
  68.1029968  71.8700027  73.6569977  67.4759979  72.9990005  74.9039993
  68.2040024  71.0930023  75.6719971  67.1480026  70.7549973  75.7529984
  68.5189972  71.4580002  76.6729965  69.0699997  69.8870010  75.2620010
  70.1240005  70.2119980  75.1259995  68.7119980  69.5059967  74.2809982
  69.0859985  68.7310028  76.2750015  69.6849976  67.9029999  75.8399963
  68.0530014  68.3550034  76.4369965  69.7119980  69.1179962  77.6240005
  69.0550003  69.8539963  78.1340027  70.6890030  69.6110001  77.4349976
  69.9339981  67.9160004  78.5530014  70.6900024  67.2399979  78.0989990
  68.9800034  67.3509979  78.6269989  70.3759995  68.3020020  79.9749985
  70.4150009  67.3820038  80.5960007  69.6070023  68.9749985  80.4120026
  71.7360001  69.0120010  80.0660019  71.6849976  69.9649963  79.4980011
  72.5199966  68.3740005  79.6029968  72.1220016  69.3270035  81.5169983
  72.1500015  68.3730011  82.0859985  71.3209991  69.9589996  81.9560013
  73.4660034  70.0459976  81.6969986  73.4820023  70.9449997  81.0449982
  74.2850037  69.3720016  81.3669968  73.7249985  70.4869995  83.1510010
  72.9380035  71.2180023  83.4339981  74.7020035  71.0139999  83.1890030
  73.7249985  69.3539963  84.1829987  73.9670029  69.7440033  85.1949997
  74.4800034  68.5839996  83.9140015  72.7279968  68.8669968  84.2279968
 118.1999969 102.5899963  64.3970032 118.2050018 101.1589966  64.9020004
 118.8580017 100.5739975  64.2710037 117.2109985 100.7529984  64.7789993
 119.5429993 103.2220001  64.5780029 119.8000031 103.2220001  65.6269989
 120.3040009 102.6940002  64.0240021 119.5270004 104.2490005  64.2419968
 117.8280029 102.6439972  62.9500008 116.8479996 102.2200012  62.7869987
 117.8109970 103.6660004  62.6030006 118.5400009 102.1009979  62.3460007
 117.2139969 103.3850021  65.1880035 116.2070007 103.0410004  65.0059967
 117.2839966 104.4380035  64.9599991 117.4280014 103.2249985  66.2350006
 118.6119995 100.9329987  66.3850021 119.6090012 101.3980026  66.5380020
 118.7259979  99.8410034  66.5500031 118.0830002 102.0059967  68.7249985
 118.0920029 103.5029984  68.6849976 119.3470001 101.3349991  69.1699982
 117.6269989 101.4400024  67.2900009 116.8960037 101.5090027  69.6859970
 115.5299988 101.7919998  69.3519974 115.0589981 100.8750000  68.9380035
 115.4240036 102.5770035  68.5739975 114.6920013 102.2160034  70.6060028
 113.6520004 102.4029999  70.2620010 115.1839981 103.4010010  71.2659988
 115.0380020 104.5370026  70.5960007 114.6800003 104.6660004  69.4339981
 115.2630005 105.7109985  71.5510025 114.8119965 105.4430008  72.5299988
 114.7160034 106.5920029  71.1539993 114.5759964 101.0240021  71.6190033
 115.5350037 100.4629974  71.5780029 113.7809982 100.3349991  71.2610016
 114.3450012 101.3980026  72.9889984 113.1529999 101.9240036  73.2679977
 112.2559967 102.1340027  72.4560013 113.0910034 102.1429977  74.7850037
 114.0520020 102.5839996  75.1279984 112.9990005 101.1380005  75.2500000
 116.7519989 106.0419998  71.7239990 117.0800018 106.6719971  70.8700027
 117.3580017 105.1110001  71.7050018 117.0270004 106.7720032  73.0469971
 116.2659988 107.5699997  73.1780014 118.0199966 107.2679977  72.9970016
 117.0179977 105.8649979  74.2900009 116.1190033 105.2119980  74.2799988
 116.9550018 106.5130005  75.1910019 118.2770004 104.9950027  74.4300003
 119.1529999 105.6770020  74.4110031 118.3730011 104.3079987  73.5619965
 118.3270035 104.1979980  75.7470016 118.0189972 104.8769989  76.5709991
 119.3759995 103.8919983  75.9489975 117.4229965 102.9479980  75.7819977
 116.3939972 103.2500000  75.4909973 117.3539963 102.6169968  76.8410034
 117.9110031 101.8450012  74.8700027 117.6090012 102.0029984  73.8239975
 118.6589966 100.7480011  75.1320038 118.8779984 100.0940018  74.2760010
 119.2610016 100.2089996  76.4160004 120.3679962 100.2880020  76.3659973
 119.0339966  99.1220016  76.4489975 118.8209991 100.7679977  77.7850037
 117.7109985 100.7590027  77.8270035 119.1490021 101.8239975  77.8980026
 119.3219986  99.9380035  78.9800034 120.3610001 100.2369995  79.2350006
 119.3430023  98.8679962  78.6829987 118.4079971 100.0569992  80.2109985
 118.7529984  99.3580017  81.0029984 117.3880005  99.7389984  79.9089966
 118.3140030 101.4769974  80.7910004 118.0749969 102.1829987  79.9670029
 119.2939987 101.7779999  81.2190018 117.2020035 101.6029968  81.8399963
 117.4069977 100.9219971  82.6930008 116.2539978 101.2770004  81.3610001
 116.9950027 103.0260010  82.3669968 116.8089981 103.6979980  81.5019989
 117.9319992 103.3700027  82.8550034 115.8379974 103.1529999  83.3570023
 115.7570038 104.1940002  83.7340012 115.9909973 102.4690018  84.2190018
 114.8799973 102.8860016  82.8619995 111.8899994 102.9889984  75.2419968
 111.7450027 102.8000031  76.3280029 110.9639969 102.6439972  74.7340012
 112.0540009 104.5009995  75.0540009 111.1760025 105.0009995  75.5179977
 112.0370026 104.7340012  73.9680023 113.3290024 105.1039963  75.6650009
 113.2429962 106.2109985  75.6100006 114.2009964 104.8000031  75.0479965
 113.6169968 104.7129974  77.1250000 113.8140030 103.6220016  77.1920013
 112.7220001 104.9339981  77.7460022 114.8199997 105.4729996  77.6999969
 114.5930023 106.5589981  77.6480026 115.7139969 105.2829971  77.0680008
 115.1419983 105.1100006  79.1579971 115.6259995 104.1110001  79.1979980
 114.1819992 105.0429993  79.7139969 116.0159988 106.1529999  79.8789978
 116.1299973 105.8669968  80.9459991 115.4599991 107.1149979  79.8509979
 117.4049988 106.4020004  79.2630005 117.7160034 107.4300003  79.5449982
 117.3359985 106.3769989  78.1539993 118.5130005 105.4440002  79.7350006
 119.3909988 105.5859985  79.0680008 118.1689987 104.3929977  79.6309967
 118.9690018 105.7129974  81.1790009 118.1210022 105.5039978  81.8659973
 119.2149963 106.7929993  81.2659988 120.2030029 104.9150009  81.6250000
 120.9649963 105.0049973  80.8209991 119.9319992 103.8420029  81.7200012
 120.8550034 105.4059982  82.9369965 121.0899963 106.4879990  82.8529968
 121.8209991 104.8649979  83.0360031 120.0510025 105.1569977  84.2289963
 120.7770004 105.1200027  85.0690002 119.5640030 104.1600037  84.1740036
 119.0139999 106.2330017  84.5650024 119.4919968 107.2350006  84.6050034
 118.5390015 106.0299988  85.5479965 118.2129974 106.2620010  83.7949982
 115.2099991 127.2900009  64.1699982 114.8040009 128.5350037  64.9469986
 115.2949982 128.5500031  65.9089966 113.7399979 128.4830017  65.1269989
 116.6330032 127.3759995  63.7270012 116.8909988 126.5599976  63.0680008
 116.7880020 128.3079987  63.2039986 117.3089981 127.3659973  64.5699997
 115.0169983 126.0619965  65.0039978 115.5910034 126.1090012  65.9179993
 113.9769974 125.9329987  65.2630005 115.3280029 125.1800003  64.4639969
 114.3389969 127.1699982  62.9539986 114.5879974 126.2880020  62.3829994
 114.4649963 128.0359955  62.3219986 113.2979965 127.1159973  63.2350006
 115.0739975 129.9149933  64.2959976 114.3610001 130.6410065  64.7419968
 114.8160019 129.8630066  63.2159996 116.8679962 131.1260071  65.7699966
 116.0520020 132.3679962  65.9039993 118.3479996 131.3309937  65.7369995
 116.4349976 130.3350067  64.4440002 116.5019989 130.1089935  66.9609985
 117.3259964 128.9389954  67.0970001 118.3079987 129.2019958  67.5449982
 117.5299988 128.4839935  66.1039963 116.6999969 127.7760010  67.9410019
 117.0579987 126.8509979  67.4390030 115.2519989 127.8069992  67.9680023
 114.7350006 126.6549988  68.3850021 115.2480011 125.5589981  68.2330017
 113.4629974 126.8990021  69.1859970 112.8960037 125.9430008  69.2080002
 112.8450012 127.6770020  68.6880035 117.2710037 127.7249985  69.3980026
 118.3799973 127.7070007  69.3379974 116.9339981 126.7580032  69.8300018
 116.8290024 128.8320007  70.2160034 117.0640030 128.6459961  71.5189972
 117.6569977 127.6839981  71.9850006 116.4400024 129.7879944  72.3259964
 115.4499969 129.4239960  72.6740036 116.2779999 130.6679993  71.6679993
 113.8470001 127.3190002  70.6190033 114.2350006 128.3600006  70.6029968
 114.6630020 126.6620026  70.9869995 112.6839981 127.2289963  71.6119995
 112.3190002 126.1819992  71.6729965 111.8450012 127.8539963  71.2369995
 113.0579987 127.7180023  73.0230026 112.1380005 127.7379990  73.6470032
 113.4110031 128.7689972  72.9449997 114.1330032 126.8880005  73.7580032
 114.9110031 127.5859985  74.1340027 114.6230011 126.1640015  73.0729980
 113.5500031 126.1350021  74.9609985 112.8980026 125.3059998  74.6119995
 112.9049988 126.8560028  75.5070038 114.5490036 125.6110001  76.0189972
 113.8850021 125.4000015  76.8840027 115.2269974 126.4400024  76.3160019
 115.3379974 124.3580017  75.7050018 115.6740036 124.2969971  74.6589966
 115.6660004 123.3280029  76.5329971 116.2539978 122.5149994  76.0820007
 115.3590012 123.0309982  78.0009995 116.3229980 123.0080032  78.5530014
 114.9700012 121.9919968  78.0479965 114.3700027 123.8560028  78.8820038
 114.1999969 123.2710037  79.8109970 113.3960037 123.9309998  78.3529968
 114.8600006 125.2669983  79.2809982 114.1620026 125.9960022  78.8170013
 115.8610001 125.4240036  78.8259964 114.9509964 125.5680008  80.7910004
 115.6259995 126.4440002  80.8889999 115.4189987 124.7080002  81.3160019
 113.6259995 125.9319992  81.4879990 113.0159988 125.0070038  81.5749969
 113.0609970 126.6559982  80.8639984 113.8140030 126.5579987  82.8809967
 114.6389999 126.0329971  83.4100037 114.1090012 127.6210022  82.7529984
 112.5650024 126.5000000  83.7630005 112.3980026 125.4349976  84.0319977
 111.6959991 126.8270035  83.1529999 112.5999985 127.3249969  85.0449982
 111.6110001 127.2880020  85.5500031 112.8410034 128.3869934  84.8229980
 113.3649979 126.9260025  85.7450027 117.3099976 130.1799927  73.5410004
 118.1849976 130.7579956  73.1760025 117.7040024 129.2709961  74.0439987
 116.5530014 131.0099945  74.5899963 116.0220032 131.8439941  74.0839996
 117.2890015 131.4600067  75.2900009 115.5410004 130.2109985  75.4300003
 114.7770004 129.7660065  74.7570038 115.0029984 130.9049988  76.1110001
 116.1320038 129.0839996  76.2969971 116.6039963 128.3130035  75.6500015
 115.2789993 128.5939941  76.8140030 117.1289978 129.5279999  77.3809967
 116.7080002 130.4109955  77.9079971 118.0920029 129.8269958  76.9140015
 117.3629990 128.4219971  78.4209976 117.7890015 127.5210037  77.9290009
 116.3669968 128.1349945  78.8229980 118.2389984 128.8159943  79.6230011
 118.0729980 128.0310059  80.3919983 117.8909988 129.7799988  80.0520020
 119.7509995 128.8650055  79.3499985 119.9489975 128.2850037  78.4229965
 120.0759964 129.9109955  79.1650009 120.6009979 128.2220001  80.4629974
 121.6080017 128.0209961  80.0400009 120.1539993 127.2419968  80.7369995
 120.8020020 129.0599976  81.7369995 119.8359985 129.1629944  82.2750015
 121.1200027 130.0780029  81.4229965 121.8820038 128.5000000  82.6900024
 122.1780014 129.2890015  83.4150009 122.7779999 128.2680054  82.0749969
 121.4929962 127.2310028  83.4759979 122.3889999 126.5780029  83.5550003
 120.7220001 126.6689987  82.9069977 120.9929962 127.5000000  84.9029999
 120.1090012 128.1690063  84.8270035 121.7809982 128.0500031  85.4599991
 120.6019974 126.2490005  85.6979980 121.4850006 125.5999985  85.8809967
 119.8489990 125.6470032  85.1449966 120.1679993 126.5319977  86.6800003
  50.4010010  68.5429993  64.2470016  51.2599983  69.2860031  65.2460022
  52.0660019  69.7699966  64.7149963  51.6949997  68.5579987  65.9150009
  49.7229996  69.4889984  63.3129997  49.1139984  68.9499969  62.6020012
  49.0839996  70.1579971  63.8720016  50.4469986  70.0770035  62.7690010
  51.2410011  67.5970001  63.4529991  51.7360001  66.8889999  64.1009979
  50.6269989  67.0429993  62.7579994  51.9930000  68.1279984  62.8880005
  49.3660011  67.7590027  64.9789963  49.8349991  66.9869995  65.5699997
  48.6549988  67.3119965  64.3000031  48.8580017  68.4219971  65.6640015
  50.5530014  70.3239975  66.1510010  49.9210014  70.9899979  65.5250015
  51.3269997  70.9769974  66.6080017  50.4690018  69.0230026  68.4079971
  51.4119987  67.9609985  67.9390030  49.4239998  68.5930023  69.3870010
  49.7389984  69.6979980  67.1480026  51.2970009  70.2470016  69.0380020
  52.4980011  69.9950027  69.7789993  53.0769997  70.9400024  69.8489990
  53.1559982  69.2620010  69.2649994  52.2439995  69.5009995  71.2379990
  51.7120018  68.5289993  71.1559982  51.4760017  70.4940033  71.9560013
  50.6049995  69.9960022  72.8280029  50.3660011  68.8109970  73.0059967
  49.9729996  71.1350021  73.6330032  50.3160019  72.1169968  73.2429962
  50.3320007  71.0289993  74.6780014  53.6020012  69.2399979  71.9619980
  54.1949997  70.1740036  71.8610001  54.1619987  68.4459991  71.4240036
  53.4469986  68.9499969  73.3669968  53.0929985  67.6890030  73.6429977
  53.0449982  66.7770004  72.8320007  52.7490005  67.6070023  75.1350021
  52.0299988  68.4290009  75.3430023  53.6720009  67.7900009  75.7249985
  48.4329987  71.0550003  73.5930023  48.0900002  70.0179977  73.7979965
  48.1020012  71.3170013  72.5650024  47.7449989  71.9990005  74.5930023
  46.8170013  72.3799973  74.1159973  48.3930016  72.8789978  74.7969971
  47.3149986  71.3270035  75.9120026  46.6269989  70.4889984  75.6679993
  46.7389984  72.0640030  76.5110016  48.4519997  70.7799988  76.7900009
  49.0550003  70.0500031  76.2080002  47.9959984  70.2259979  77.6380005
  49.3689995  71.8619995  77.3820038  48.7280006  72.5830002  77.9329987
  49.8750000  72.4229965  76.5670013  50.4160004  71.3040009  78.3679962
  49.8849983  70.6890030  79.1259995  50.8670006  72.1640015  78.9069977
  51.5000000  70.4919968  77.7030029  51.3680000  70.3249969  76.6240005
  52.5760002  69.9710007  78.3209991  53.2999992  69.3909988  77.7300034
  52.8930016  70.0830002  79.7929993  52.9049988  69.0670013  80.2429962
  52.1090012  70.6559982  80.3339996  54.2470016  70.7529984  80.0960007
  54.2239990  71.8150024  79.7730026  55.0449982  70.2429962  79.5130005
  54.6320000  70.6940002  81.5859985  55.6549988  71.1100006  81.7040024
  54.6580009  69.6250000  81.8899994  53.6829987  71.4540024  82.5240021
  52.6839981  70.9690018  82.5120010  53.5589981  72.4850006  82.1269989
  54.1710014  71.5550003  83.9830017  53.4819984  72.2580032  84.4980011
  55.1870003  72.0009995  84.0220032  54.1430016  70.2350006  84.7789993
  53.2900009  69.6129990  84.4329987  53.9570007  70.4840012  85.8460007
  55.4469986  69.4250031  84.7269974  56.2879982  70.0790024  85.0410004
  55.6409988  69.1139984  83.6780014  55.4269981  68.1750031  85.6100006
  54.6040001  67.4960022  85.3030014  55.2739983  68.4530029  86.6750031
  56.3880005  67.6240005  85.5250015  52.1080017  66.2630005  75.5370026
  52.9160004  65.5139999  75.6849976  51.4519997  65.8880005  74.7229996
  51.2529984  66.3720016  76.8099976  51.7840004  67.0070038  77.5510025
  51.1310005  65.3619995  77.2570038  49.8520012  66.9499969  76.5400009
  49.2400017  66.1829987  76.0199966  49.9529991  67.8180008  75.8529968
  49.1069984  67.4479980  77.7910004  48.1349983  67.8779984  77.4690018
  49.6990013  68.2710037  78.2450027  48.8409996  66.3840027  78.8679962
  49.8110008  66.0169983  79.2639999  48.3230019  65.5199966  78.4000015
  47.9770012  66.8970032  80.0400009  47.8199997  66.0619965  80.7559967
  46.9799995  67.1829987  79.6409988  48.5489998  68.0970001  80.8199997
  47.8079987  68.4029999  81.5889969  48.6800003  68.9520035  80.1230011
  49.8909988  67.8229980  81.5220032  50.6180000  67.4820023  80.7539978
  49.7659988  67.0019989  82.2600021  50.4900017  69.0660019  82.2060013
  50.4239998  69.9130020  81.4899979  51.5680008  68.8860016  82.4069977
  49.8219986  69.4850006  83.5260010  48.7229996  69.5490036  83.3809967
  50.1850014  70.5019989  83.7880020  50.1329994  68.5479965  84.7050018
  51.2330017  68.4449997  84.8239975  49.7290001  67.5459976  84.4469986
  49.5089989  68.9850006  86.0429993  49.1730003  68.0680008  86.5719986
  48.6049995  69.6009979  85.8470001  50.4659996  69.7340012  86.9899979
  51.3470001  69.0859985  87.1829987  49.9440002  69.8779984  87.9589996
  50.9469986  71.0979996  86.4889984  50.0820007  71.7730026  86.3160019
  51.5000000  70.9899979  85.5309982  51.6240005  71.5719986  87.2310028
  63.2709999 128.8000031  64.4980011  63.6599998 127.8939972  64.8300018
  62.3050003 128.8880005  64.8730011  63.2099991 128.7870026  63.4599991
  64.0749969 129.9739990  65.0080032  63.9990005 130.7940063  64.2620010
  65.1330032 129.6439972  65.0810013  63.5559998 130.4660034  66.3789978
  64.3219986 131.1569977  66.7900009  63.4900017 129.6199951  67.0960007
  60.9039993 130.4859924  66.4359970  60.8889999 129.2660065  65.5810013
  59.8330002 131.4880066  66.1719971  60.8860016 130.0559998  67.9710007
  62.3250008 131.1900024  66.2600021  60.9690018 131.0500031  69.0059967
  60.2120018 130.8309937  69.7890015  60.7430000 132.0720062  68.6340027
  62.3670006 131.1080017  69.7009964  63.1310005 131.0850067  68.8939972
  62.5270004 129.9739990  70.5830002  63.7729988 129.7630005  70.9990005
  64.7610016 130.3580017  70.5910034  63.8310013 128.6360016  72.0439987
  64.6190033 128.9149933  72.7770004  64.1569977 127.7129974  71.5179977
  62.5449982 132.4680023  70.4520035  62.4099998 133.2700043  69.6949997
  63.5880013 132.5720062  70.8190002  61.5460014 132.6410065  71.4830017
  61.9329987 132.3489990  72.7249985  63.0719986 132.0769958  73.0690002
  60.7109985 132.4010010  73.6449966  60.1720009 131.4369965  73.5189972
  60.0439987 133.2259979  73.3160019  62.5019989 128.3690033  72.7900009
  61.7179985 128.1069946  72.0469971  62.1730003 129.2899933  73.3170013
  62.5830002 127.2080002  73.7959976  62.9490013 126.3030014  73.2649994
  61.5559998 126.9860001  74.1589966  63.4739990 127.4499969  75.0270004
  64.4970016 127.7360001  74.7020035  63.5589981 126.4919968  75.5820007
  62.9309998 128.5110016  75.9990005  61.8899994 128.2429962  76.2799988
  62.9000015 129.4969940  75.4879990  63.7709999 128.6199951  77.2829971
  64.8180008 128.8750000  77.0149994  63.7919998 127.6190033  77.7639999
  63.2360001 129.6289978  78.3209991  63.8510017 129.5050049  79.2369995
  62.1940002 129.3470001  78.5849991  63.3120003 131.0659943  77.8789978
  63.9249992 131.2429962  76.9840012  62.6800003 132.1109924  78.4459991
  62.8219986 133.1040039  77.9960022  61.7849998 132.1100006  79.6669998
  61.7809982 131.1309967  80.1920013  60.7389984 132.3159943  79.3519974
  62.2150002 133.2089996  80.6600037  62.4720001 134.1210022  80.0790024
  63.1329994 132.8910065  81.1989975  61.1489983 133.6540070  81.6780014
  60.1409988 133.6540070  81.2119980  61.3860016 134.7100067  81.9300003
  61.1279984 132.8760071  83.0059967  61.9819984 132.1660004  83.0469971
  60.1930008 132.2790070  83.0579987  61.2029991 133.8130035  84.2279968
  60.5289993 134.6770020  84.0439987  62.2379990 134.2070007  84.3180008
  60.7700005 133.1770020  85.5599976  59.7169991 132.8379974  85.4580002
  60.7929993 133.9530029  86.3550034  61.6100006 131.9770050  86.0090027
  62.6710014 132.2870026  86.1129990  61.5649986 131.1999969  85.2160034
  61.1220016 131.3609924  87.3209991  61.1860008 132.0939941  88.1529999
  61.7290001 130.4680023  87.5820007  60.0629997 131.0390015  87.2160034
  61.0989990 132.5959930  75.1279984  61.5200005 133.6139984  75.2639999
  61.8870010 131.8670044  75.4140015  59.9169998 132.4069977  76.0920029
  59.0439987 132.9989929  75.7419968  60.2130013 132.8079987  77.0849991
  59.5270004 130.9320068  76.2829971  60.4459991 130.3609924  76.5319977
  59.1220016 130.5220032  75.3330002  58.5099983 130.7059937  77.4120026
  57.5589981 131.2250061  77.1610031  58.9119987 131.1600037  78.3420029
  58.2229996 129.2169952  77.6689987  59.1660004 128.7220001  77.9869995
  57.8989983 128.7489929  76.7149963  57.1380005 128.9479980  78.7269974
  56.9860001 127.8499985  78.8020020  56.1800003 129.3939972  78.3850021
  57.4640007 129.4889984  80.1289978  57.5579987 130.5939941  80.0630035
  58.4420013 129.0890045  80.4710007  56.3870010 129.1560059  81.1800003
  55.4169998 128.9629974  80.6729965  56.2519989 130.0500031  81.8249969
  56.7379990 127.9789963  82.1060028  55.9510002 127.9049988  82.8880005
  57.6990013 128.1999969  82.6169968  56.8650017 126.6050034  81.4260025
  57.6969986 126.6240005  80.6890030  55.9199982 126.4100037  80.8759995
  57.0960007 125.4670029  82.4329987  56.4910011 124.5839996  82.1360016
  56.7340012 125.7979965  83.4300003  58.5629997 125.0490036  82.6029968
  59.1269989 125.9530029  82.9160004  58.9809990 124.7070007  81.6320038
  58.7630005 123.9629974  83.6699982  58.7560005 122.9649963  83.1819992
  57.8940010 123.9990005  84.3619995  60.0320015 124.1289978  84.5059967
  60.1129990 123.3119965  85.2549973  60.0019989 125.1009979  85.0439987
  60.9370003 124.1119995  83.8610001 123.1320038  99.5019989  65.3970032
 124.3519974  99.4629974  66.3010025 125.0029984  98.6709976  65.9629974
 124.0289993  99.1999969  67.2969971 122.2129974 100.5999985  65.8259964
 122.7369995 101.5429993  65.7860031 121.3519974 100.6579971  65.1760025
 121.8679962 100.4449997  66.8369980 123.5709991  99.7639999  63.9930000
 122.7310028  99.9390030  63.3370018 124.2180023 100.6279984  63.9959984
 124.1510010  98.9359970  63.6129990 122.4020004  98.1979980  65.4420013
 121.5550003  98.2160034  64.7720032 122.0370026  97.9889984  66.4369965
 123.0469971  97.3870010  65.1370010 125.2170029 100.7519989  66.4029999
 125.9430008 100.5709991  67.2229996 124.5690002 101.6009979  66.7099991
 127.0179977 102.2030029  65.1829987 126.3860016 103.5009995  65.5810013
 127.6949997 102.2060013  63.8460007 125.8929977 101.0510025  65.1740036
 128.0800018 101.7440033  66.3160019 128.6869965 100.4479980  66.1640015
 129.3540039 100.4359970  65.2750015 127.9160004  99.6640015  66.0039978
 129.5659943  99.9710007  67.3840027 129.8690033  98.9329987  67.1269989
 128.8760071  99.9520035  68.6480026 127.9410019  99.0419998  68.8349991
 127.5019989  98.2600021  68.0039978 127.5380020  99.0550003  70.3170013
 126.6019974  98.4680023  70.4369965 127.3410034 100.1080017  70.6110001
 130.9239960 100.7559967  67.5339966 131.3339996 100.8960037  66.5110016
 131.6479950 100.1060028  68.0690002 130.7920074 102.0510025  68.1699982
 130.7810059 102.0210037  69.5159988 131.0970001 101.0640030  70.2080002
 130.3869934 103.3960037  70.0680008 130.8569946 104.1719971  69.4270020
 130.7929993 103.4990005  71.0970001 128.6640015  98.4649963  71.1910019
 129.6419983  98.8710022  70.8560028 128.7010040  97.3619995  71.0609970
 128.5319977  98.8030014  72.6809998 127.5619965  98.4250031  73.0670013
 128.5420074  99.9089966  72.7890015 129.6799927  98.2170029  73.5159988
 130.6470032  98.5380020  73.0739975 129.6329956  97.1080017  73.4580002
 129.6569977  98.6350021  74.9929962 128.6929932  98.3109970  75.4390030
 129.7149963  99.7419968  75.0670013 130.8049927  98.0080032  75.8020020
 131.7850037  98.3830032  75.4349976 130.7640076  96.9140015  75.6169968
 130.6889954  98.1689987  77.3280029 131.4570007  97.5199966  77.8010025
 129.7030029  97.7259979  77.5859985 130.8190002  99.5749969  77.8590012
 131.8410034  99.9800034  77.8460007 129.8289948 100.3539963  78.3369980
 130.0939941 101.3649979  78.6809998 128.3529968 100.0360031  78.4359970
 128.1250000  98.9830017  78.1630020 127.8160019 100.6610031  77.6910019
 127.7289963 100.3330002  79.8199997 126.6309967 100.4339981  79.6839981
 128.0989990 101.3119965  80.1940002 127.9960022  99.2590027  80.8870010
 129.0930023  99.1129990  80.9800034 127.5500031  98.3000031  80.5469971
 127.4130020  99.5790024  82.2710037 126.3130035  99.7030029  82.1719971
 127.8270035 100.5479965  82.6210022 127.6809998  98.4950027  83.3389969
 127.1819992  97.5510025  83.0309982 127.2180023  98.8369980  84.2890015
 129.1620026  98.1809998  83.6200027 129.6179962  97.6869965  82.7360001
 129.7100067  99.1340027  83.7860031 129.3719940  97.3040009  84.8629990
 128.9530029  96.2929993  84.6709976 128.8000031  97.7539978  85.7030029
 130.8329926  97.1770020  85.2939987 131.2440033  98.1750031  85.5579987
 131.4479980  96.7480011  84.4739990 130.9250031  96.5159988  86.1819992
 128.8589935 103.5749969  70.0670013 128.4340057 103.1380005  69.1380005
 128.6349945 104.6630020  70.0510025 128.1589966 102.9729996  71.2929993
 128.5160065 103.5080032  72.1989975 128.4400024 101.9039993  71.4000015
 126.6269989 103.0899963  71.2109985 126.2500000 102.3550034  70.4680023
 126.3740005 104.1050034  70.8379974 125.8880005 102.8980026  72.5490036
 124.7969971 103.0029984  72.3679962 126.1940002 103.7200012  73.2310028
 126.1449966 101.5530014  73.2470016 127.2229996 101.4940033  73.5080032
 125.9240036 100.7229996  72.5429993 125.3300018 101.3489990  74.5380020
 125.6320038 100.3759995  74.9810028 124.2480011 101.2910004  74.2959976
 125.5589981 102.4560013  75.5810013 125.0830002 103.3980026  75.2340012
 126.6539993 102.6340027  75.6429977 125.0370026 102.1070023  76.9830017
 125.5400009 101.1719971  77.3099976 123.9449997 101.9059982  76.9349976
 125.3079987 103.1900024  78.0449982 125.0090027 102.7740021  79.0309982
 124.6790009 104.0849991  77.8470001 126.7829971 103.6169968  78.1119995
 127.0059967 104.3740005  77.3300018 127.3970032 102.7210007  77.8789978
 127.2429962 104.1080017  79.4919968 126.8089981 103.4219971  80.2509995
 126.8580017 105.1320038  79.6869965 128.7740021 104.0680008  79.6309967
 129.2330017 104.7460022  78.8799973 129.0980072 103.0339966  79.3860016
 129.3300018 104.4150009  81.0220032 129.2590027 105.5149994  81.1549988
 130.4100037 104.1559982  81.0380020 128.6380005 103.7590027  82.2139969
 129.1739960 104.0210037  83.1510010 128.6329956 102.6529999  82.1090012
 127.5889969 104.1129990  82.3059998 130.5079956 115.3610001  65.9240036
 129.8739929 115.3970032  64.5490036 130.6519928 115.4010010  63.8009987
 129.3190002 116.3180008  64.4479980 129.4409943 115.3889999  66.9629974
 128.9400024 116.3460007  66.9680023 128.6940002 114.6520004  66.7060013
 129.8370056 115.2050018  67.9509964 131.3139954 114.1149979  66.0780029
 132.0599976 114.0439987  65.3000031 131.8130035 114.0989990  67.0360031
 130.6670074 113.2529984  66.0149994 131.3999939 116.5439987  66.1179962
 131.8260040 116.5319977  67.1100006 130.8430023 117.4619980  66.0029984
 132.2089996 116.5370026  65.4029999 128.8459930 114.2880020  64.2089996
 129.2440033 113.3010025  64.5270004 128.7270050 114.2350006  63.1049995
 126.6669998 115.7320023  64.3160019 125.7050018 115.1969986  63.3030014
 127.5130005 116.8769989  63.8569984 127.5899963 114.5210037  64.8489990
 125.8339996 116.1940002  65.6169968 125.8379974 115.3099976  66.7509995
 126.8280029 115.3249969  67.2559967 125.6019974 114.2659988  66.4530029
 124.7649994 115.6989975  67.8160019 123.8109970 115.7570038  67.2500000
 125.0770035 116.9869995  68.4059982 124.0009995 117.6600037  68.8349991
 122.8489990 117.2369995  68.7710037 124.4089966 119.0609970  69.3600006
 124.0660019 119.8040009  68.6090012 125.5199966 119.0790024  69.3840027
 124.5889969 114.5530014  68.8860016 124.0490036 113.7480011  68.3440018
 123.9229965 114.9329987  69.6900024 125.8369980 114.0339966  69.4369965
 125.6200027 112.9810028  70.2539978 124.5339966 112.4309998  70.3769989
 126.9079971 112.5009995  70.9609985 127.5039978 111.9309998  70.2170029
 126.5609970 111.7949982  71.7450027 123.8489990 119.3259964  70.7829971
 123.7799988 118.3389969  71.2890015 122.8209991 119.7450027  70.7409973
 124.7770004 120.2040024  71.6549988 124.6900024 121.2760010  71.3759995
 125.8229980 119.9029999  71.4290009 124.5820007 120.0439987  73.1790009
 124.1770020 119.0350037  73.4089966 123.8310013 120.7740021  73.5490036
 125.8600006 120.1660004  74.0299988 126.1839981 121.2289963  74.0210037
 126.6849976 119.5790024  73.5729980 125.7350006 119.6650009  75.4869995
 124.6569977 119.7249985  75.7500000 126.2890015 120.3840027  76.1279984
 126.3379974 118.2750015  75.8170013 127.3460007 118.4449997  76.2519989
 126.5199966 117.7379990  74.8610001 125.4779968 117.4629974  76.7519989
 124.6790009 118.0559998  77.2210007 125.5759964 116.1470032  77.0319977
 124.8199997 115.7200012  77.7070007 126.6549988 115.1760025  76.6019974
 127.3949966 115.6800003  75.9440002 126.2180023 114.3290024  76.0319977
 127.3919983 114.6399994  77.8519974 126.7839966 113.8389969  78.3229980
 127.5029984 115.4739990  78.5770035 128.8190002 114.1409988  77.5920029
 129.3690033 114.9700012  77.0979996 128.8170013 113.2630005  76.9100037
 129.5709991 113.8059998  78.8899994 129.3029938 114.5479965  79.6719971
 130.6640015 113.8980026  78.7129974 129.2960052 112.3860016  79.4059982
 129.7680054 111.6719971  78.6979980 128.2019958 112.1910019  79.3820038
 129.8059998 112.0869980  80.8229980 130.8489990 112.4530029  80.9349976
 129.8190002 110.9830017  80.9509964 128.9149933 112.6569977  81.9329987
 127.8939972 112.2369995  81.8059998 128.8399963 113.7580032  81.8089981
 129.4109955 112.3369980  83.3440018 129.4900055 111.2369995  83.4830017
 128.7089996 112.7409973  84.1039963 130.4120026 112.7870026  83.5169983
 127.7500000 113.5889969  71.6669998 127.0800018 114.1900024  72.3190002
 128.1920013 114.2659988  70.9049988 128.8659973 113.0619965  72.5889969
 129.4010010 112.2379990  72.0699997 128.4129944 112.6389999  73.5120010
 129.9380035 114.1129990  72.9629974 130.3119965 114.5599976  72.0169983
 130.7989960 113.5960007  73.4390030 129.5240021 115.2620010  73.9020004
 129.3650055 114.8710022  74.9290009 128.5549927 115.6979980  73.5780029
 130.5709991 116.3919983  73.9469986 130.7570038 116.7180023  72.9010010
 131.5299988 115.9850006  74.3339996 130.1699982 117.6350021  74.7659988
 129.1979980 118.0189972  74.3870010 130.9490051 118.4069977  74.5869980
 130.0559998 117.4069977  76.2789993 130.8170013 116.6620026  76.5940018
 129.0559998 116.9729996  76.4919968 130.2149963 118.6949997  77.1050034
 129.4720001 119.4420013  76.7529984 131.2350006 119.1019974  76.9339981
 130.0240021 118.4789963  78.6210022 130.4109955 119.3600006  79.1760025
 130.6190033 117.5970001  78.9430008 128.5599976 118.2549973  79.0270004
 128.1179962 117.4729996  78.3720016 127.9869995 119.1920013  78.8560028
 128.3500061 117.8199997  80.4810028 128.6929932 118.6100006  81.1829987
 128.9709930 116.9150009  80.6529999 126.8880005 117.4459991  80.7789993
 126.5380020 116.7679977  79.9710007 126.2689972 118.3690033  80.7539978
 126.7300034 116.7229996  82.1230011 126.9940033 117.4260025  82.9420013
 127.4769974 115.9010010  82.1470032 125.3460007 116.1340027  82.3860016
 124.5630035 116.9219971  82.3720016 125.3339996 115.6220016  83.3720016
 125.0950012 115.3750000  81.6149979 134.6900024  85.0800018  67.8020020
 134.8150024  83.8629990  66.9000015 134.2760010  83.0439987  67.3519974
 135.8480072  83.5520020  66.8440018 133.2550049  85.2710037  68.1510010
 133.1130066  86.1429977  68.7710037 132.6909943  85.4319992  67.2440033
 132.8560028  84.4120026  68.6699982 135.4669952  84.9319992  69.0739975
 136.5209961  84.7929993  68.8820038 135.3679962  85.8160019  69.6869965
 135.1210022  84.0950012  69.6630020 135.1600037  86.3099976  67.0869980
 136.2030029  86.2409973  66.8130035 135.0359955  87.1949997  67.6920013
 134.5850067  86.4430008  66.1829987 134.2920074  84.0130005  65.4449997
 134.4510040  83.0459976  64.9219971 134.9369965  84.7470016  64.9169998
 132.3329926  85.6050034  64.6139984 131.1820068  85.0759964  63.8409996
 133.3959961  86.3140030  63.8510017 132.9019928  84.3369980  65.4010010
 131.8309937  86.4960022  65.8300018 130.4559937  86.5559998  66.2289963
 130.1889954  85.6800003  66.8570023 129.7700043  86.5719986  65.3539963
 130.1309967  87.8320007  67.0680008 130.3009949  88.7070007  66.4049988
 130.9459991  87.8799973  68.2600021 132.0579987  88.5960007  68.1559982
 132.3589935  89.3259964  67.2220001 132.9530029  88.4349976  69.4059982
 133.4019928  89.4390030  69.5640030 133.7920074  87.7480011  69.1640015
 128.6190033  87.9049988  67.4540024 128.0469971  87.8820038  66.5019989
 128.4279938  88.9020004  67.9049988 128.1779938  86.8010025  68.2799988
 127.9250031  87.0800018  69.5640030 128.0890045  88.1610031  70.1090012
 127.3300018  85.8249969  70.2269974 127.8669968  84.9339981  69.8369980
 126.2659988  85.7600021  69.9140015 132.2489929  88.0110016  70.7149963
 131.2850037  88.5530014  70.8270035 132.8939972  88.3270035  71.5619965
 131.9949951  86.5039978  70.8659973 132.9589996  85.9520035  70.8509979
 131.3690033  86.1589966  70.0159988 131.2409973  86.1569977  72.1549988
 130.8359985  85.1259995  72.0800018 130.3840027  86.8570023  72.2509995
 132.1100006  86.2450027  73.4160004 132.5500031  87.2620010  73.4850006
 132.9499969  85.5220032  73.3270035 131.3410034  85.9440002  74.7119980
 132.0670013  85.8649979  75.5490036 130.8489990  84.9530029  74.6080017
 130.2660065  86.9860001  75.0859985 129.6990051  86.5630035  75.9420013
 129.5390015  87.0790024  74.2509995 130.8179932  88.3410034  75.4570007
 130.8719940  89.0670013  74.6330032 131.2359924  88.7099991  76.6839981
 131.6150055  89.7320023  76.8280029 131.2709961  87.8359985  77.9160004
 130.9830017  86.7900009  77.6790009 130.5379944  88.2099991  78.6630020
 132.6569977  87.7860031  78.5859985 132.8990021  88.7910004  78.9909973
 133.4360046  87.5260010  77.8369980 132.7180023  86.7590027  79.7239990
 132.6600037  85.7340012  79.2990036 131.8300018  86.9039993  80.3750000
 133.9640045  86.8840027  80.6090012 134.0010071  87.9349976  80.9690018
 134.8880005  86.6930008  80.0210037 133.9109955  85.9680023  81.8379974
 134.1719971  84.9219971  81.5699997 132.8569946  85.9580002  82.1900024
 134.7729950  86.4609985  83.0049973 134.7839966  87.5719986  82.9960022
 135.8179932  86.1100006  82.8679962 134.2519989  86.0260010  84.3799973
 134.1840057  84.9179993  84.4130020 133.2189941  86.4179993  84.4960022
 135.1139984  86.5179977  85.5390015 134.6809998  86.1999969  86.5110016
 135.1809998  87.6259995  85.5199966 136.1419983  86.1060028  85.4530029
 127.4150009  85.8410034  71.7699966 126.9550018  86.7659988  72.1790009
 128.4869995  85.8399963  72.0630035 126.7360001  84.6200027  72.4120026
 126.9280014  83.7379990  71.7649994 125.6370010  84.7779999  72.4479980
 127.2580032  84.2689972  73.8180008 128.3619995  84.1529999  73.7679977
 126.8330002  83.2880020  74.1179962 126.9260025  85.2880020  74.9199982
 125.8249969  85.4160004  74.9970016 127.3649979  86.2720032  74.6480026
 127.4909973  84.8560028  76.2839966 128.5809937  84.6809998  76.1589966
 127.0270004  83.8929977  76.5889969 127.3000031  85.8970032  77.4000015
 126.2229996  85.9619980  77.6630020 127.6149979  86.8860016  77.0019989
 128.1260071  85.6259995  78.6750031 127.9649963  86.4690018  79.3799973
 129.2019958  85.6210022  78.3980026 127.7819977  84.3099976  79.3960037
 127.9629974  83.4609985  78.7030029 126.6989975  84.3209991  79.6429977
 128.5709991  84.0510025  80.6959991 128.2149963  83.0910034  81.1259995
 128.3390045  84.8519974  81.4309998 130.0989990  83.9769974  80.5179977
 130.4869995  85.0070038  80.3669968 130.3220062  83.3949966  79.5979996
 130.8600006  83.3239975  81.6880035 131.9440002  83.3270035  81.4420013
 130.5410004  82.2639999  81.7819977 130.6809998  84.0159988  83.0469971
 129.6029968  84.0400009  83.3160019 131.0319977  85.0660019  82.9560013
 131.4689941  83.3369980  84.1760025 132.5460052  83.3479996  83.9010010
 131.1519928  82.2740021  84.2419968 131.3049927  83.9970016  85.5439987
 130.2369995  84.0019989  85.8509979 131.6620026  85.0490036  85.5049973
 131.8950043  83.4540024  86.3130035  55.5740013  63.9959984  64.9430008
  55.6329994  63.2649994  66.2659988  55.0940018  63.8499985  66.9970016
  56.6599998  63.2239990  66.5960007  54.1940002  63.9199982  64.3779984
  53.4780006  64.3779984  65.0429993  54.1459999  64.4100037  63.4160004
  53.9239998  62.8820000  64.2519989  55.9389992  65.4319992  65.1149979
  55.9920006  65.9229965  64.1549988  55.1959991  65.9459991  65.7080002
  56.8940010  65.5319977  65.6100006  56.5040016  63.3400002  63.9780006
  56.4210014  63.7779999  62.9939995  56.2420006  62.2939987  63.9309998
  57.5270004  63.3989983  64.3190002  55.0680008  61.8199997  66.3170013
  53.9819984  61.8689995  66.0839996  55.1619987  61.4920006  67.3740005
  55.9389992  59.3880005  65.8399963  56.3499985  58.6139984  64.6230011
  54.7229996  58.8720016  66.5449982  55.7140007  60.9230003  65.4059982
  57.1710014  59.4599991  66.8899994  58.4490013  59.8619995  66.3629990
  58.4220009  60.9210014  66.0279999  58.7190018  59.2459984  65.4779968
  59.6689987  59.7140007  67.3580017  60.5670013  59.5849991  66.7160034
  59.6250000  58.6059990  68.2779999  59.3260002  57.4029999  67.8160019
  59.2639999  57.0680008  66.6389999  59.1730003  56.4090004  68.9909973
  60.1889992  56.0149994  69.2070007  58.5359993  55.5680008  68.6429977
  59.9329987  61.0320015  68.1630020  60.0589981  61.8580017  67.4309998
  60.9090004  60.9129982  68.6800003  58.9199982  61.2910004  69.1610031
  58.0239983  62.2319984  68.8909988  58.0789986  63.0190010  67.9530029
  56.9420013  62.2010002  69.9840012  57.4480019  62.4630013  70.9369965
  56.5550003  61.1629982  70.0650024  58.5800018  57.0190010  70.2819977
  59.1500015  57.9319992  70.5589981  58.7070007  56.2970009  71.1169968
  57.0909996  57.3699989  70.1669998  56.4869995  56.4379997  70.1959991
  56.9210014  57.8479996  69.1790009  56.5890007  58.3549995  71.2399979
  55.5190010  58.5769997  71.0350037  57.1549988  59.3040009  71.1309967
  56.7239990  57.8790016  72.6949997  57.8009987  57.7560005  72.9390030
  56.2330017  56.8880005  72.8050003  56.0870018  58.8650017  73.6880035
  55.0110016  58.9630013  73.4300003  56.5449982  59.8689995  73.5630035
  56.1720009  58.4360008  75.1679993  55.7449989  57.4150009  75.2590027
  55.5019989  59.1129990  75.7399979  57.5569992  58.5000000  75.7679977
  58.3250008  58.9790001  75.1429977  57.9000015  58.0369987  76.9840012
  58.9360008  58.1699982  77.3300018  56.9809990  57.3549995  77.9700012
  57.4770012  56.4469986  78.3740005  56.0439987  57.0149994  77.4800034
  56.5779991  58.2309990  79.1699982  56.0919991  59.1619987  78.8050003
  57.4869995  58.5260010  79.7360001  55.6049995  57.5149994  80.1200027
  56.0919991  56.5849991  80.4830017  54.7039986  57.2190018  79.5419998
  55.1479988  58.3470001  81.3310013  54.4169998  57.7420006  81.9100037
  54.6199989  59.2509995  80.9580002  56.2680016  58.8059998  82.2770004
  56.8849983  59.5530014  81.7330017  56.9259987  57.9469986  82.5289993
  55.7529984  59.4440002  83.5800018  54.8160019  60.0060005  83.3799973
  56.5149994  60.1739998  83.9260025  55.5260010  58.4280014  84.7109985
  56.4580002  57.8359985  84.8359985  54.7200012  57.7290001  84.3990021
  55.1599998  59.0419998  86.0640030  55.9729996  59.7109985  86.4179993
  55.0149994  58.2430000  86.8219986  54.2200012  59.6290016  85.9879990
  55.7639999  63.1769981  69.7559967  54.9609985  62.6559982  69.1910019
  56.0960007  64.0490036  69.1529999  55.1940002  63.7360001  71.0699997
  54.3590012  64.4329987  70.8440018  55.9959984  64.3290024  71.5599976
  54.7019997  62.6850014  72.0820007  55.4790001  61.9000015  72.2089996
  53.7779999  62.1949997  71.7060013  54.4420013  63.3110008  73.4609985
  53.6370010  64.0739975  73.3929977  55.3750000  63.8370018  73.7559967
  54.1059990  62.3030014  74.5690002  54.6419983  61.3520012  74.3649979
  53.0159988  62.0890007  74.5709991  54.5670013  62.8030014  75.9459991
  54.1069984  63.7879982  76.1740036  55.6650009  62.9560013  75.8759995
  54.2669983  61.8279991  77.0930023  54.5099983  60.7980003  76.7539978
  53.1800003  61.8590012  77.3229980  55.0779991  62.0970001  78.3740005
  54.7439995  61.3689995  79.1439972  54.8720016  63.1209984  78.7539978
  56.5890007  61.9059982  78.1729965  57.0130005  62.7280006  77.5579987
  56.7249985  60.9609985  77.6060028  57.3940010  61.7709999  79.4710007
  56.8790016  61.0299988  80.1190033  57.4350014  62.7410011  80.0120010
  58.8110008  61.2519989  79.1969986  59.3820000  61.9980011  78.6039963
  58.7169991  60.3330002  78.5800018  59.6119995  60.8670006  80.4430008
  60.4729996  60.2579994  80.0950012  59.0070000  60.2350006  81.1269989
  60.2330017  62.0449982  81.1800003  59.4570007  62.5830002  81.7639999
  60.6209984  62.7519989  80.4160004  61.3919983  61.6409988  82.0800018
  61.8160019  62.5250015  82.6009979  62.1899986  61.1689987  81.4690018
  61.0610008  60.9020004  82.8410034  68.2689972 133.4299927  66.5279999
  68.7910004 134.8529968  66.4499969  69.8499985 134.8370056  66.6640015
  68.3249969 135.4450073  67.2229996  68.9440002 132.5749969  65.5029984
  70.0110016 132.5460052  65.6669998  68.5749969 131.5610046  65.5439987
  68.7590027 132.9669952  64.5130005  68.5360031 132.8450012  67.8769989
  68.1630020 131.8329926  67.9290009  69.5970001 132.8170013  68.0810013
  68.0510025 133.4219971  68.6510010  66.7979965 133.4199982  66.2750015
  66.2730026 133.9510040  67.0550003  66.4130020 132.4140015  66.2040024
  66.6039963 133.9510040  65.3550034  68.5719986 135.6300049  65.1190033
  68.9499969 135.0099945  64.2779999  69.2009964 136.5449982  65.1380005
  66.4940033 137.1089935  65.7470016  65.2030029 136.5809937  66.2779999
  66.3889999 138.3419952  64.9110031  67.1989975 135.9589996  64.8820038
  67.5029984 137.3600006  66.9639969  67.2519989 138.3710022  67.9449997
  67.5410004 137.9709930  68.9400024  66.1770020 138.6450043  68.0159988
  68.0790024 139.6799927  67.7210007  67.7799988 140.1210022  66.7460022
  69.4899979 139.3939972  67.7809982  70.0999985 139.1710052  66.6299973
  69.6320038 139.3569946  65.5149994  71.5510025 138.7440033  66.8850021
  72.0630035 139.5440063  67.4619980  72.0360031 138.6660004  65.8889999
  67.7379990 140.7380066  68.8150024  66.6750031 141.0269928  68.6729965
  68.3440018 141.6549988  68.6520004  67.8880005 140.1900024  70.1409988
  69.0879974 140.3049927  70.7050018  69.9990005 141.0240021  70.3219986
  69.1399994 139.3979950  71.9339981  70.1949997 139.1020050  72.1129990
  68.5660019 138.4779968  71.6910019  71.6829987 137.3869934  67.6110001
  72.6969986 136.9900055  67.3899994  70.9459991 136.6519928  67.2220001
  71.5709991 137.5079956  69.1380005  70.5299988 137.7579956  69.4319992
  72.2220001 138.3450012  69.4690018  72.0329971 136.2420044  69.8730011
  72.1699982 136.4810028  70.9489975  73.0289993 135.9519958  69.4769974
  71.0780029 135.0410004  69.7480011  71.5830002 134.1549988  70.1900024
  70.9140015 134.8159943  68.6719971  69.7060013 135.2239990  70.4349976
  69.1240005 134.2850037  70.3180008  69.1529999 136.0260010  69.9020004
  69.7620010 135.5919952  71.9359970  68.7190018 135.7339935  72.2919998
  70.2659988 136.5769958  72.0360031  70.4710007 134.5570068  72.7760010
  71.0149994 133.7870026  72.2099991  70.4759979 134.4929962  74.1200027
  71.0350037 133.6779938  74.6029968  69.7959976 135.4470062  75.0680008
  68.9489975 134.9380035  75.5759964  69.3690033 136.3130035  74.5179977
  70.7470016 135.9969940  76.1449966  71.6240005 136.4709930  75.6559982
  71.1190033 135.1609955  76.7740021  70.0800018 137.0460052  77.0500031
  69.1740036 136.6069946  77.5210037  69.7580032 137.9029999  76.4199982
  71.0220032 137.5549927  78.1470032  71.9710007 137.8820038  77.6699982
  71.2730026 136.7230072  78.8399963  70.4560013 138.7339935  78.9489975
  69.5500031 138.4129944  79.5070038  70.1549988 139.5330048  78.2379990
  71.4929962 139.3059998  79.9229965  72.4319992 139.4960022  79.3619995
  71.7190018 138.5449982  80.6999969  71.0680008 140.6100006  80.6050034
  70.1859970 140.4140015  81.2519989  70.7549973 141.3359985  79.8249969
  72.1930008 141.2270050  81.4369965  72.4690018 140.5559998  82.2779999
  71.8720016 142.2059937  81.8529968  73.0950012 141.3930054  80.8109970
  68.5469971 140.0899963  73.1819992  67.7959976 140.8529968  72.8850021
  69.3639984 140.6199951  73.7170029  67.8499985 139.1159973  74.1419983
  67.6529999 139.6479950  75.0970001  68.5279999 138.2660065  74.3700027
  66.5120010 138.5850067  73.5979996  66.6940002 137.9279938  72.7210007
  65.9120026 139.4530029  73.2490005  65.6880035 137.8220062  74.6470032
  64.6470032 137.6990051  74.2760010  65.6449966 138.4340057  75.5729980
  66.2620010 136.4450073  75.0029984  67.3259964 136.5619965  75.2979965
  66.2320023 135.8009949  74.0979996  65.5199966 135.7519989  76.1559982
  65.7639999 134.6690063  76.1269989  64.4219971 135.8540039  76.0169983
  65.9280014 136.2830048  77.5400009  65.7409973 137.3769989  77.5979996
  67.0199966 136.1190033  77.6620026  65.1920013 135.5740051  78.6849976
  65.2440033 134.4790039  78.5029984  64.1190033 135.8609924  78.6729965
  65.7799988 135.8410034  80.0810013  65.7160034 136.9219971  80.3290024
  66.8529968 135.5529938  80.0780029  65.0469971 135.0140076  81.1460037
  64.9960022 133.9669952  80.7779999  64.0029984 135.3849945  81.2369995
  65.6849976 134.9739990  82.5419998  66.7119980 134.5549927  82.4749985
  65.0800018 134.2720032  83.1559982  65.7249985 136.3269958  83.2669983
  64.7900009 136.8840027  83.0429993  66.5770035 136.9199982  82.8700027
  65.8499985 136.1979980  84.7959976  64.8939972 135.7899933  85.1890030
  65.9789963 137.2140045  85.2249985  66.9929962 135.2989960  85.2760010
  67.9599991 135.6490021  84.8550034  66.8349991 134.2500000  84.9479980
  67.0660019 135.3099976  86.3840027  52.6450005 106.8290024  65.4599991
  53.8170013 106.7399979  64.4980011  54.0919991 107.7389984  64.1940002
  53.4910011 106.2259979  63.6059990  53.0209999 107.6350021  66.6600037
  53.3590012 108.6240005  66.3870010  52.1860008 107.7399979  67.3359985
  53.8250008 107.1549988  67.1969986  51.4599991 107.4440002  64.7850037
  51.6920013 108.4160004  64.3769989  51.1209984 106.8219986  63.9700012
  50.6300011 107.5490036  65.4690018  52.2630005 105.4570007  65.9049988
  51.8540001 104.8960037  65.0780029  51.5349998 105.4970016  66.7009964
  53.1609993 104.9469986  66.2220001  55.0950012 106.0100021  64.9970016
  55.3689995 106.3970032  66.0019989  55.9099998 106.2819977  64.2919998
  56.1430016 103.6679993  65.4720001  57.4269981 104.2099991  64.9349976
  55.8409996 102.2490005  65.1129990  54.9109993 104.5910034  65.0189972
  56.1409988 103.8030014  67.0680008  55.0190010 103.3460007  67.8399963
  55.3499985 102.5390015  68.5279999  54.2019997 102.9280014  67.2129974
  54.3870010 104.4850006  68.6979980  54.0639992 105.2549973  67.9639969
  55.3580017 104.9769974  69.6510010  55.6199989 106.2770004  69.5910034
  55.1290016 107.0709991  68.8010025  56.6399994 106.6890030  70.6679993
  56.1879997 107.5299988  71.2369995  57.5410004 107.0690002  70.1409988
  53.0760002 103.9909973  69.4049988  52.7210007 103.0910034  68.8580017
  52.2970009 104.7649994  69.2409973  53.2210007 103.6650009  70.8089981
  53.1220016 104.7310028  71.6220016  52.9049988 105.8789978  71.2580032
  53.3569984 104.3069992  73.0770035  54.3639984 104.6900024  73.3489990
  53.3639984 103.1989975  73.1589966  57.0489998 105.5719986  71.6520004
  57.5610008 104.7590027  71.0950012  56.1399994 105.1439972  72.1269989
  57.9860001 106.0920029  72.7509995  57.4490013 106.8320007  73.3820038
  58.8349991 106.6179962  72.2639999  58.5670013 104.9869995  73.6429977
  59.3339996 105.4349976  74.3099976  59.0970001 104.2539978  72.9980011
  57.5359993 104.2409973  74.5049973  57.6409988 103.1610031  74.2649994
  56.5009995 104.5370026  74.2330017  57.7319984 104.3970032  76.0230026
  57.1920013 105.3040009  76.3710022  58.8129997 104.5540009  76.2279968
  57.2989998 103.1620026  76.8460007  57.5309982 103.3899994  77.9089966
  57.9440002 102.3069992  76.5490036  55.8460007 102.7880020  76.6829987
  55.3359985 103.2890015  75.8470001  55.1259995 101.9599991  77.4670029
  54.0639992 101.8109970  77.2249985  55.6010017 101.1849976  78.6760025
  56.4939995 100.5790024  78.4100037  54.8079987 100.4670029  78.9749985
  55.9599991 102.0240021  79.9250031  56.8909988 102.5930023  79.7190018
  56.1839981 101.3259964  80.7600021  54.8670006 103.0049973  80.3909988
  53.9550018 102.4219971  80.6429977  54.6080017 103.7040024  79.5670013
  55.2869987 103.8359985  81.6129990  55.7150002 103.1549988  82.3799973
  54.3899994 104.3190002  82.0559998  56.3019981 104.9369965  81.2730026
  55.7900009 105.7009964  80.6490021  57.1339989 104.5100021  80.6719971
  56.9020004 105.6149979  82.5090027  57.4529991 104.8399963  83.0839996
  56.0849991 106.0049973  83.1539993  57.8820000 106.7440033  82.1729965
  58.6349983 106.3649979  81.4479980  58.4300003 107.0210037  83.0989990
  57.2290001 108.0039978  81.6060028  56.5019989 108.4169998  82.3379974
  56.6910019 107.7779999  80.6610031  57.9970016 108.7799988  81.3980026
  52.2919998 104.9150009  74.0139999  51.3300018 104.3759995  73.8779984
  52.1180000 105.9749985  73.7320023  52.6800003 104.9130020  75.5019989
  52.8919983 103.8750000  75.8389969  51.8110008 105.2870026  76.0849991
  53.8880005 105.8109970  75.8199997  53.7239990 106.8219986  75.3899994
  54.7859993 105.3769989  75.3310013  54.1990013 105.9520035  77.3199997
  55.2599983 106.2659988  77.4229965  54.0989990 104.9619980  77.8140030
  53.3269997 106.9909973  78.0410004  52.2599983 106.6890030  77.9769974
  53.4339981 107.9619980  77.5120010  53.7220001 107.1930008  79.5100021
  54.8050003 107.4390030  79.5510025  53.5820007 106.2379990  80.0599976
  52.9469986 108.3180008  80.2149963  51.8639984 108.0680008  80.2409973
  53.0620003 109.2470016  79.6179962  53.4319992 108.6169968  81.6429977
  52.9039993 109.5210037  82.0159988  54.5169983 108.8499985  81.6019974
  53.2109985 107.4700012  82.6360016  53.7130013 106.5540009  82.2570038
  52.1230011 107.2580032  82.6999969  53.7430000 107.7590027  84.0500031
  53.4900017 108.8030014  84.3320007  54.8499985 107.6650009  84.0220032
  53.1800003 106.8119965  85.1240005  52.0890007 107.0009995  85.2170029
  53.6529999 107.0510025  86.1009979  53.3919983 105.3209991  84.8190002
  54.4809990 105.1309967  84.7089996  52.9090004 105.0670013  83.8519974
  52.8339996 104.4020004  85.9110031  51.7550011 104.6259995  86.0540009
  53.3569984 104.6360016  86.8629990  52.9980011 102.9120026  85.6119995
  52.6349983 102.3030014  86.4670029  54.0660019 102.6689987  85.4270020
  52.4109993 102.6279984  84.7119980  41.0270004  93.3430023  67.0070038
  40.9490013  93.8000031  65.5619965  40.8390007  94.8750000  65.5550003
  40.0550003  93.3850021  65.1210022  40.9119987  91.8560028  67.0500031
  39.9539986  91.5299988  66.6729965  41.6769981  91.4509964  66.4039993
  41.0530014  91.4789963  68.0520020  42.3489990  93.7330017  67.5830002
  43.1310005  93.2429962  67.0230026  42.4980011  94.8010025  67.5189972
  42.4370003  93.4250031  68.6139984  39.9379997  93.9499969  67.8290024
  38.9669991  93.6230011  67.4869995  39.9790001  95.0289993  67.7870026
  40.0369987  93.6579971  68.8639984  42.1459999  93.4449997  64.6320038
  43.0429993  93.9779968  65.0110016  41.9269981  93.8759995  63.6310005
  43.7890015  91.3809967  64.6800003  44.6819992  91.8320007  63.5699997
  43.6230011  89.9029999  64.8190002  42.3419991  92.0329971  64.4889984
  44.3059998  92.0059967  66.0599976  45.3050003  91.3470001  66.8470001
  45.8730011  92.1119995  67.4179993  46.0439987  90.8099976  66.2149963
  44.7150002  90.3410034  67.8880005  44.1220016  89.5999985  67.3119965
  43.8720016  91.0469971  68.8259964  43.0349998  90.2679977  69.5049973
  42.8730011  89.0690002  69.3170013  42.2750015  91.1360016  70.5189972
  41.6969986  91.8880005  69.9400024  43.0169983  91.6729965  71.1470032
  45.8600006  89.5640030  68.6149979  46.4410019  89.0380020  67.8280029
  45.4389992  88.7710037  69.2699966  46.7470016  90.4649963  69.3130035
  46.3790016  90.7679977  70.5589981  45.5600014  90.1559982  71.2239990
  47.1599998  91.9940033  71.0260010  47.4809990  92.5739975  70.1340027
  48.0649986  91.6460037  71.5670013  41.3009987  90.3199997  71.3990021
  40.6879997  89.6539993  70.7539978  40.6010017  91.0230026  71.9000015
  41.9920006  89.4820023  72.4899979  42.7789993  88.8519974  72.0230026
  41.2360001  88.8000031  72.9359970  42.6049995  90.3170013  73.6279984
  41.8110008  90.9660034  74.0540009  43.4000015  90.9789963  73.2210007
  43.2039986  89.4670029  74.7630005  42.4459991  88.7369995  75.1179962
  43.4469986  90.1399994  75.6129990  44.4819984  88.7170029  74.3470001
  45.2270012  89.4580002  73.9869995  44.2389984  88.0540009  73.4899979
  45.1100006  87.8430023  75.4550018  45.9360008  87.2639999  74.9889984
  44.3460007  87.1090012  75.7890015  45.6559982  88.6409988  76.6149979
  45.9630013  89.6679993  76.3690033  45.7589989  88.2220001  77.8919983
  46.1559982  88.9179993  78.6449966  45.3989983  86.8519974  78.4209976
  46.2360001  86.4489975  79.0299988  45.2470016  86.1309967  77.5889969
  44.1139984  86.8379974  79.2770004  43.8069992  85.7829971  79.4410019
  43.2999992  87.3320007  78.7050018  44.2439995  87.5159988  80.6520004
  43.2290001  87.8140030  80.9919968  44.8540001  88.4400024  80.5680008
  44.8400002  86.6019974  81.7330017  44.1599998  85.7350006  81.8769989
  45.8240013  86.2089996  81.3970032  45.0120010  87.3099976  83.0820007
  44.0760002  87.8560028  83.3270035  45.8260002  88.0619965  82.9970016
  45.3170013  86.3539963  84.2409973  46.2400017  85.7750015  84.0220032
  44.4790001  85.6330032  84.3410034  45.4879990  87.0999985  85.5650024
  44.5429993  87.6470032  85.7710037  46.2879982  87.8610001  85.4449997
  45.8139992  86.2269974  86.7699966  46.7439995  85.6449966  86.5960007
  44.9830017  85.5149994  86.9649963  45.9589996  86.8550034  87.6750031
  46.3129997  92.9029999  71.9410019  46.0379982  92.3550034  72.8679962
  45.3720016  93.1910019  71.4260025  47.0800018  94.1740036  72.3160019
  47.3079987  94.7490005  71.3939972  48.0460014  93.8730011  72.7750015
  46.3499985  95.0879974  73.3079987  47.0960007  95.7990036  73.7249985
  45.9589996  94.4800034  74.1520004  45.2190018  95.9219971  72.6869965
  44.3689995  95.2590027  72.4199982  45.6049995  96.3679962  71.7450027
  44.7220001  97.0800018  73.5780029  44.0419998  97.6989975  72.9550018
  45.5800018  97.7229996  73.8700027  43.9379997  96.6549988  74.8359985
  43.2410011  95.8349991  74.5599976  43.3199997  97.5149994  75.1719971
  44.8160019  96.2190018  76.0230026  44.7490005  96.9670029  76.8420029
  45.8759995  96.1989975  75.6930008  44.4580002  94.8280029  76.5690002
  44.3750000  94.1220016  75.7149963  43.4669991  94.8720016  77.0690002
  45.5169983  94.2860031  77.5410004  45.6040001  94.9759979  78.4079971
  46.4959984  94.2890015  77.0169983  45.2389984  92.8550034  78.0390015
  46.1020012  92.5220032  78.6539993  45.1790009  92.1819992  77.1569977
  43.9529991  92.6849976  78.8710022  43.8559990  91.6070023  79.1220016
  43.0730019  92.9649963  78.2539978  43.9339981  93.5019989  80.1760025
  44.0250015  94.5820007  79.9309998  44.8209991  93.2210007  80.7829971
  42.6710014  93.3040009  81.0319977  41.7820015  93.6080017  80.4390030
  42.7360001  93.9909973  81.9029999  42.4679985  91.8809967  81.5559998
  43.3450012  91.5630035  82.1589966  42.3339996  91.1610031  80.7210007
  41.5670013  91.8410034  82.2050018  94.6650009 106.2389984  66.5820007
  93.2580032 106.4599991  66.0550003  92.8339996 107.3079987  66.5729980
  92.6429977 105.6080017  66.3069992  95.4929962 107.4670029  66.3720016
  96.4879990 107.3430023  66.7740021  95.5749969 107.6780014  65.3160019
  95.0520020 108.3249969  66.8580017  94.6470032 105.9169998  68.0410004
  95.6510010 105.7460022  68.4000015  94.2360001 106.7389984  68.6090012
  94.0550003 105.0350037  68.2310028  95.3020020 105.1129990  65.8369980
  96.3649979 105.0609970  66.0199966  95.1289978 105.2710037  64.7829971
  94.8389969 104.1709976  66.0889969  93.1149979 106.6880035  64.5250015
  93.8460007 107.4629974  64.2109985  92.1110001 107.1159973  64.3170013
  92.1449966 104.5429993  63.3380013  92.6999969 103.2350006  62.8740005
  91.2850037 105.2580032  62.3470001  93.3529968 105.4950027  63.7709999
  91.3040009 104.3180008  64.6839981  91.8300018 103.4349976  65.6849976
  92.8570023 103.7269974  65.9889984  91.8730011 102.3939972  65.2990036
  90.9499969 103.4049988  66.9729996  89.9580002 103.0220032  66.6520004
  90.8059998 104.7310028  67.5339966  89.8639984 104.8320007  68.4729996
  89.0970001 103.9420013  68.8069992  89.8499985 106.2529984  69.0469971
  89.0559998 106.3109970  69.8219986  89.5550003 106.9120026  68.2020035
  91.5380020 102.3960037  68.0080032  91.7139969 101.4359970  67.4769974
  90.7789993 102.2129974  68.7990036  92.7659988 102.8929977  68.5820007
  93.2500000 102.0979996  69.5400009  92.8050003 100.9950027  69.8209991
  94.4270020 102.8130035  70.2050018  94.1689987 103.8889999  70.3109970
  95.3040009 102.7200012  69.5289993  91.2030029 106.7289963  69.6200027
  91.1930008 107.8389969  69.6510010  92.0370026 106.4240036  68.9520035
  91.4619980 106.2369995  71.0500031  91.4089966 105.1279984  71.0749969
  90.6650009 106.6330032  71.7149963  92.8310013 106.6699982  71.5950012
  92.9739990 107.7580032  71.4189987  93.6200027 106.1269989  71.0319977
  92.9970016 106.3860016  73.0960007  92.6399994 105.3550034  73.3069992
  92.3499985 107.0830002  73.6709976  94.4530029 106.5009995  73.5800018
  94.8020020 107.5500031  73.4690018  95.0790024 105.8710022  72.9130020
  94.6900024 106.0120010  75.0270004  95.7890015 105.9800034  75.1910019
  94.3280029 104.9639969  75.0879974  94.0019989 106.8450012  76.0820007
  92.9240036 106.9820023  75.9140015  94.5579987 107.4290009  77.1630020
  93.9029999 108.0049973  77.8339996  96.0019989 107.3730011  77.6060028
  96.5329971 108.2659988  77.2129974  96.5319977 106.4840012  77.1999969
  96.1829987 107.3889999  79.1419983  95.4940033 108.1399994  79.5849991
  97.2160034 107.7269974  79.3679962  95.9629974 106.0400009  79.8550034
  95.0660019 105.5299988  79.4440002  95.7529984 106.2639999  80.9229965
  97.1880035 105.1050034  79.8170013  98.0899963 105.7529984  79.8489990
  97.2229996 104.5429993  78.8590012  97.3180008 104.1460037  81.0189972
  97.0439987 104.6780014  81.9550018  98.3939972 103.8789978  81.0940018
  96.5459976 102.8150024  80.9339981  96.8730011 102.1800003  81.7839966
  96.8300018 102.2870026  79.9980011  95.0220032 102.9499969  81.0059967
  94.6790009 103.5599976  80.1429977  94.7580032 103.5070038  81.9309998
  94.2590027 101.6269989  80.9840012  94.5210037 101.0490036  80.0719986
  93.1640015 101.8180008  80.9690018  94.5080032 101.0169983  81.8779984
  94.7710037 102.2369995  71.5899963  95.6770020 102.7630005  71.9619980
  95.0240021 101.1579971  71.5100021  93.6520004 102.4380035  72.6190033
  92.7750015 101.8199997  72.3300018  93.3369980 103.5029984  72.6029968
  94.0650024 102.0709991  74.0500031  94.9059982 102.7279968  74.3590012
  94.4280014 101.0210037  74.0670013  92.9270020 102.2070007  75.0680008
  92.1050034 101.5169983  74.7819977  92.5309982 103.2440033  75.0370026
  93.3710022 101.8799973  76.5019989  94.0790024 102.6600037  76.8550034
  93.9140015 100.9110031  76.4940033  92.1999969 101.7630005  77.4909973
  92.5869980 101.4089966  78.4700012  91.4960022 100.9929962  77.1090012
  91.4250031 103.0699997  77.7220001  90.5260010 102.8219986  78.3259964
  91.0729980 103.4919968  76.7570038  92.2160034 104.1340027  78.4990005
  93.0770035 104.5039978  77.9020004  92.6230011 103.6299973  79.4010010
  91.3330002 105.3109970  78.9420013  90.3519974 104.8899994  79.2470016
  91.1449966 105.9779968  78.0739975  91.8639984 106.1320038  80.1330032
  91.0970001 106.8939972  80.3870010  92.7839966 106.6699982  79.8209991
  92.1829987 105.3249969  81.4089966  92.4329987 106.0289993  82.2310028
  93.0930023 104.7210007  81.2009964  91.0709991 104.3720016  81.8779984
  90.7789993 103.7109985  81.0339966  90.1790009 104.9710007  82.1620026
  91.4690018 103.4670029  83.0530014  91.8020020 104.1029968  83.9000015
  92.3379974 102.8470001  82.7460022  90.3339996 102.5540009  83.5230026
  90.6640015 101.9240036  84.3759995  90.0019989 101.8899994  82.6959991
  89.4639969 103.1630020  83.8519974  98.6819992  58.8479996  66.0879974
  99.2509995  60.0719986  65.3870010  98.5459976  60.3909988  64.6350021
 100.1480026  59.7739983  64.8639984  97.3799973  59.2070007  66.7249985
  97.5210037  60.1030006  67.3109970  96.6409988  59.4399986  65.9729996
  97.0070038  58.4099998  67.3509979  98.4459991  57.7500000  65.1009979
  99.3679962  57.4449997  64.6279984  98.0149994  56.8860016  65.5849991
  97.7610016  58.0699997  64.3300018  99.6289978  58.3689995  67.1409988
 100.5729980  58.0810013  66.7030029  99.2190018  57.5209999  67.6699982
  99.8089981  59.1619987  67.8509979  99.5930023  61.3100014  66.2659988
 100.1719971  62.0330009  65.6529999 100.2799988  60.9889984  67.0780029
  97.5889969  63.0449982  66.0979996  96.1819992  62.5789986  65.9120026
  98.2870026  63.5040016  64.8580017  98.4380035  61.9119987  66.8519974
  97.5660019  64.2760010  67.1250000  98.6600037  64.5569992  68.0059967
  98.8909988  65.6419983  67.9440002  99.5950012  64.0270004  67.7239990
  98.3300018  64.2600021  69.5070038  99.1640015  64.6729965  70.1129990
  98.1819992  62.8499985  69.7620010  99.3140030  62.1580009  69.7659988
 100.4430008  62.6279984  69.6989975  99.0049973  60.6730003  69.9720001
  99.9649963  60.1170006  69.9189987  98.3499985  60.3349991  69.1409988
  97.0500031  65.0080032  69.9840012  96.1529999  64.5859985  69.4830017
  97.1409988  66.0640030  69.6529999  96.9680023  64.9869995  71.4229965
  96.2750015  63.9889984  71.9739990  95.4619980  63.2820015  71.3990021
  96.6470032  63.8429985  73.4570007  97.0930023  62.8349991  73.5950012
  95.7050018  63.8889999  74.0449982  98.3259964  60.4280014  71.3320007
  97.3700027  60.9930000  71.3779984  98.9800034  60.8120003  72.1439972
  98.0370026  58.9440002  71.5950012  98.9520035  58.3520012  71.3779984
  97.2440033  58.6059990  70.8949966  97.6039963  58.6419983  73.0419998
  98.4860001  58.7509995  73.7080002  97.2679977  57.5849991  73.0999985
  96.4889984  59.5620003  73.5630035  95.6610031  59.5709991  72.8209991
  96.8769989  60.5999985  73.6429977  95.9000015  59.1549988  74.9260025
  95.4489975  58.1450005  74.8249969  95.0699997  59.8569984  75.1559982
  96.8840027  59.1230011  76.1210022  97.6190033  58.3149986  75.9169998
  96.3020020  58.7919998  77.0080032  97.6429977  60.3820000  76.4749985
  98.7350006  60.2680016  76.4160004  97.1620026  61.5800018  76.8679962
  97.8909988  62.3590012  77.1350021  95.7310028  62.0260010  77.0350037
  95.0329971  61.2350006  76.6859970  95.5429993  62.9239998  76.4089966
  95.3020020  62.3559990  78.4779968  95.5390015  61.5019989  79.1470032
  94.1959991  62.4650002  78.4720001  95.8820038  63.6399994  79.0889969
  95.6729965  64.5059967  78.4260025  96.9860001  63.5390015  79.1620026
  95.3199997  63.9099998  80.4950027  95.3600006  62.9519997  81.0559998
  94.2529984  64.2109985  80.4150009  96.1050034  64.9459991  81.3109970
  96.0770035  65.9369965  80.8089981  97.1600037  64.5970001  81.3310013
  95.6240005  65.0849991  82.7649994  95.4919968  64.0690002  83.1930008
  94.6289978  65.5790024  82.7669983  96.5839996  65.8690033  83.6790009
  96.0970001  65.9950027  84.6689987  96.7289963  66.8850021  83.2529984
  97.9530029  65.2089996  83.8909988  98.5719986  65.8109970  84.5910034
  98.5019989  65.1190033  82.9290009  97.8300018  64.1890030  84.3130035
  97.6320038  64.9189987  73.9599991  97.2160034  65.9260025  73.7419968
  98.5989990  64.8290024  73.4189987  97.8939972  64.8460007  75.4660034
  98.4160004  63.8940010  75.7020035  96.9229965  64.8399963  76.0070038
  98.7249985  66.0339966  75.9670029  98.2519989  66.9759979  75.6169968
  99.7389984  65.9649963  75.5199966  98.8759995  66.1080017  77.4899979
  97.8850021  66.2990036  77.9530029  99.5449982  66.9629974  77.7229996
  99.4779968  64.8410034  78.0960007 100.4079971  64.5899963  77.5429993
  98.7740021  63.9939995  77.9560013  99.7939987  64.9609985  79.5899963
  98.8450012  64.8280029  80.1520004 100.1829987  65.9769974  79.8140030
 100.8219986  63.9329987  80.0830002 100.8180008  63.9150009  81.1940002
 101.8300018  64.2740021  79.7630005 100.6449966  62.4970016  79.5619965
 101.4599991  61.8880005  80.0070038 100.7929993  62.4799995  78.4609985
  99.3140030  61.7980003  79.8799973  99.4209976  60.7249985  79.6110001
  98.5199966  62.2190018  79.2269974  98.8479996  61.9029999  81.3369980
  98.5569992  62.9550018  81.5439987  99.7009964  61.6469994  82.0019989
  97.6709976  60.9749985  81.6589966  98.0240021  59.9259987  81.5660019
  96.8659973  61.1409988  80.9110031  97.0800018  61.1769981  83.0609970
  96.5790024  62.1669998  83.1009979  97.9120026  61.1829987  83.7979965
  96.0849991  60.0779991  83.4570007  96.6029968  59.0979996  83.3850021
  95.2500000  60.0660019  82.7239990  95.5100021  60.2130013  84.8659973
  94.8339996  59.3569984  85.0790024  94.9290009  61.1549988  84.9609985
  96.3270035  60.2080002  85.6179962  99.1119995  32.2690010  66.1320038
  97.6640015  32.4469986  66.5500031  97.6200027  33.1119995  67.4000015
  97.2850037  31.4930000  66.8860016  99.1989975  31.3619995  64.9449997
  98.6589966  31.7919998  64.1149979 100.2269974  31.2210007  64.6429977
  98.7720032  30.3939991  65.1630020  99.6940002  33.5909996  65.7580032
  99.0230026  34.0699997  65.0609970  99.7699966  34.2360001  66.6200027
 100.6689987  33.4819984  65.3059998  99.9110031  31.6790009  67.2500000
  99.5260010  30.7089996  67.5260010  99.8870010  32.3170013  68.1220016
 100.9420013  31.5550003  66.9530029  96.6780014  33.0260010  65.5000000
  95.6449966  32.9049988  65.8899994  96.7340012  32.4109993  64.5759964
  96.4589996  35.5540009  66.1600037  94.9929962  35.7560005  65.9499969
  97.3209991  36.7550011  65.9339981  96.9570007  34.3899994  65.1729965
  96.6969986  34.9560013  67.6380005  97.7480011  35.4970016  68.4509964
  97.5000000  36.5400009  68.7419968  98.7160034  35.5110016  67.9059982
  97.9830017  34.7000008  69.7770004  98.4749985  33.7410011  69.5100021
  96.7320023  34.5000000  70.4710007  96.0879974  33.3829994  70.1470032
  96.5640030  32.4339981  69.5370026  94.6380005  33.4659996  70.6429977
  94.0039978  33.6430016  69.7480011  94.5220032  34.3300018  71.3310013
  98.9850006  35.4690018  70.6900024  98.5260010  36.4280014  71.0130005
  99.8529968  35.7410011  70.0530014  99.4729996  34.6669998  71.7900009
  98.8750000  34.8580017  72.9720001  97.9029999  35.5660019  73.1760025
  99.6790009  34.1209984  74.0540009 100.3499985  34.8820000  74.5070038
 100.3150024  33.3390007  73.5859985  94.1890030  32.1689987  71.3450012
  94.4199982  31.2819996  70.7170029  93.0849991  32.2050018  71.4629974
  94.8069992  32.0019989  72.7399979  94.6100006  32.9210014  73.3330002
  95.9079971  31.8859997  72.6480026  94.2279968  30.7950001  73.4919968
  94.3590012  29.8899994  72.8600006  93.1370010  30.9500008  73.6320038
  94.8779984  30.5330009  74.8610001  95.9660034  30.3570004  74.7220001
  94.4359970  29.6019993  75.2770004  94.6790009  31.6599998  75.8899994
  93.5979996  31.9130001  75.9319992  95.2239990  32.5660019  75.5500031
  95.1630020  31.2520008  77.2969971  96.2320023  30.9619999  77.2190018
  94.5999985  30.3400002  77.5869980  94.9479980  32.3190002  78.3450012
  94.0000000  32.8689995  78.2519989  95.7839966  32.6370010  79.3550034
  95.4860001  33.4269981  80.0589981  97.1159973  31.9909992  79.6589966
  97.7409973  32.6800003  80.2669983  97.6660004  31.8160000  78.7089996
  97.0000000  30.6380005  80.3970032  97.9879990  30.1320000  80.4290009
  96.3140030  29.9820004  79.8190002  96.4700012  30.7339993  81.8379974
  95.9879990  29.7649994  82.0899963  95.6849976  31.5170002  81.9059982
  97.5490036  30.9839993  82.9029999  98.0660019  31.9470005  82.7030029
  98.3030014  30.1700001  82.8460007  96.9520035  31.0090008  84.3180008
  96.3000031  30.1170006  84.4349976  96.3069992  31.9090004  84.4160004
  97.9950027  31.0109997  85.4449997  98.6620026  31.8889999  85.3089981
  98.6190033  30.0960007  85.3590012  97.4059982  31.0799999  86.8649979
  96.9250031  32.0750008  86.9840012  98.2470016  31.0359993  87.5899963
  96.3669968  30.0149994  87.2200012  95.4700012  30.1229992  86.5739975
  96.0479965  30.1240005  88.2789993  96.7880020  28.9960003  87.0780029
  98.7929993  33.4990005  75.1549988  98.4860001  32.4819984  74.8290024
  97.8590012  34.0859985  75.2870026  99.4909973  33.4090004  76.5270004
 100.4690018  32.8979988  76.3990021  98.8649979  32.7729988  77.1890030
  99.7149963  34.7560005  77.2480011 100.3399963  35.4199982  76.6139984
 100.2819977  34.5649986  78.1839981  98.4160004  35.5000000  77.6139984
  97.7929993  34.8540001  78.2689972  97.8379974  35.6829987  76.6829987
  98.6340027  36.8699989  78.2839966  97.6699982  37.4230003  78.2770004
  99.3539963  37.4529991  77.6709976  99.1309967  36.8279991  79.7369995
  99.3980026  37.8629990  80.0400009 100.0540009  36.2130013  79.7979965
  98.1070023  36.2999992  80.7549973  97.8550034  35.2449989  80.5120010
  97.1780014  36.9049988  80.6839981  98.6409988  36.3759995  82.1890030
  98.8960037  37.4329987  82.4199982  99.5879974  35.7980003  82.2470016
  97.6819992  35.8619995  83.2699966  97.3330002  34.8380013  83.0189972
  96.8000031  36.5379982  83.3030014  98.3499985  35.8380013  84.6500015
  98.9789963  36.7480011  84.7519989  99.0380020  34.9679985  84.7089996
  97.4029999  35.8240013  85.8590012  96.7070007  36.6889992  85.8209991
  98.0419998  35.9760017  86.7549973  96.5950012  34.5400009  86.0699997
  96.7819977  34.1899986  87.1070023  96.9649963  33.7490005  85.3820038
  95.0810013  34.7140007  85.9069977  94.8799973  35.1619987  84.9100037
  94.7340012  35.4370003  86.6750031  94.2639999  33.4389992  86.0589981
  93.1790009  33.6629982  85.9720001  94.4420013  32.9710007  87.0510025
  94.5260010  32.7029991  85.2689972 110.6890030 134.3379974  65.7549973
 109.6829987 133.2189941  65.8899994 108.7919998 133.6199951  66.3499985
 110.0920029 132.4790039  66.5619965 110.9660034 134.9389954  67.0960007
 111.3339996 134.1940002  67.7860031 111.7210007 135.7070007  67.0130005
 110.0800018 135.3899994  67.5169983 111.9660034 133.7850037  65.2149963
 111.7570038 133.2389984  64.3069992 112.6849976 134.5670013  65.0149994
 112.3929977 133.0800018  65.9130020 110.1839981 135.4010010  64.8339996
 109.2590027 135.8249969  65.1949997 110.0090027 134.9850006  63.8520012
 110.9069977 136.1970062  64.7360001 109.2730026 132.4510040  64.6090012
 109.0309982 133.1790009  63.8059998 108.3310013 131.9010010  64.8190002
 110.5619965 130.2120056  64.9779968 111.7190018 129.4900055  64.3730011
 109.2829971 129.4409943  65.0429993 110.3000031 131.5650024  64.1510010
 110.9749985 130.7389984  66.4400024 110.9260025 129.8670044  67.5749969
 111.9160004 129.3840027  67.7220001 110.1809998 129.0529938  67.4459991
 110.5350037 130.6040039  68.9039993 110.0439987 129.8619995  69.5699997
 109.6500015 131.7189941  68.6819992 108.4240036 131.3919983  68.2969971
 108.0000000 130.2680054  68.0699997 107.5839996 132.6739960  68.2470016
 107.1640015 132.7709961  67.2229996 108.2300034 133.5529938  68.4560013
 111.7949982 131.0919952  69.6880035 112.4359970 131.6739960  68.9909973
 112.3779984 130.1889954  69.9680023 111.4349976 131.8119965  70.8960037
 111.5220032 133.1419983  70.8300018 111.9889984 133.7779999  69.8970032
 110.9400024 133.8099976  72.0879974 109.8339996 133.8150024  71.9789963
 111.2870026 134.8659973  72.0670013 106.4390030 132.6239929  69.2710037
 105.7160034 131.8280029  68.9919968 105.8929977 133.5899963  69.2279968
 106.9000015 132.3970032  70.7210007 106.0650024 132.7339935  71.3720016
 107.7880020 133.0169983  70.9690018 107.1579971 130.9179993  71.0619965
 108.1809998 130.6060028  70.7600021 106.4300003 130.3079987  70.4869995
 106.9530029 130.6029968  72.5380020 106.0619965 131.1679993  72.8840027
 107.8229980 130.9550018  73.1340027 106.6610031 129.1300049  72.8330002
 107.5090027 128.4969940  72.4929962 105.7509995 128.8339996  72.2689972
 106.4250031 128.9440002  74.3369980 105.7009964 129.7200012  74.6650009
 107.3850021 129.1869965  74.8420029 105.9329987 127.5859985  74.7639999
 105.7770004 126.8389969  73.9720001 105.6959991 127.2659988  76.0479965
 105.3730011 126.2480011  76.3089981 105.8919983 128.2019958  77.2129974
 105.2850037 127.8700027  78.0820007 105.5510025 129.2279968  76.9570007
 107.3669968 128.2790070  77.6380005 107.9899979 128.5670013  76.7639999
 107.7229996 127.2850037  77.9830017 107.6460037 129.3110046  78.7350006
 107.1190033 130.2680054  78.5299988 108.7360001 129.5209961  78.6900024
 107.3389969 128.7980042  80.1429977 107.4489975 127.6930008  80.1230011
 106.2890015 129.0269928  80.4250031 108.3040009 129.3289948  81.2060013
 107.9270020 130.2960052  81.6039963 109.2910004 129.5130005  80.7300034
 108.5279999 128.3300018  82.3420029 108.7320023 127.3379974  81.8850021
 107.5930023 128.2420044  82.9359970 109.7129974 128.6580048  83.2580032
 110.6299973 128.6519928  82.6320038 109.8030014 127.8300018  83.9929962
 109.6470032 129.9850006  84.0110016 110.5500031 130.1089935  84.6460037
 108.7470016 130.0240021  84.6610031 109.6009979 130.8329926  83.2949982
 111.3479996 133.1809998  73.4459991 111.6470032 133.9859924  74.1500015
 112.2320023 132.5209961  73.3150024 110.2089996 132.3809967  74.0989990
 110.6100006 131.7590027  74.9270020 109.8160019 131.6869965  73.3259964
 109.0449982 133.2330017  74.6429977 108.1510010 132.5760040  74.6999969
 108.8050003 134.0610046  73.9420013 109.2740021 133.7899933  76.0609970
 110.1610031 134.4589996  76.0859985 109.4899979 132.9230042  76.7210007
 108.0419998 134.5429993  76.6039963 107.1340027 134.1340027  76.1110001
 108.1159973 135.6170044  76.3290024 107.8160019 134.4190063  78.1230011
 106.9649963 135.0769958  78.4020004 108.7139969 134.7700043  78.6750031
 107.4720001 132.9839935  78.5599976 108.3789978 132.3470001  78.4869995
 106.7239990 132.5690002  77.8499985 106.8880005 132.8339996  79.9769974
 106.7320023 131.7500000  80.1620026 105.8909988 133.3220062  80.0080032
 107.7409973 133.3919983  81.1309967 107.2699966 133.0549927  82.0800018
 107.6610031 134.5000000  81.1119995 109.2239990 132.9660034  81.1470032
 109.6949997 133.1600037  80.1600037 109.2590027 131.8699951  81.3239975
 110.0849991 133.6340027  82.2360001 110.3820038 134.6529999  81.9089966
 111.0139999 133.0350037  82.3479996 109.3830032 133.7319946  83.5989990
 108.7929993 132.8040009  83.7600021 108.6709976 134.5839996  83.5699997
 110.3359985 133.8899994  84.7900009 110.9459991 132.9629974  84.8499985
 109.7330017 133.9440002  85.7220001 111.2760010 135.0930023  84.7139969
 111.8509979 135.0690002  83.7630005 111.9889984 135.0690002  85.5660019
 110.7089996 136.0480042  84.7539978  35.8370018  73.4749985  64.8339996
  35.5110016  73.3679962  66.3119965  36.4140015  73.5699997  66.8669968
  35.2330017  72.3499985  66.5410004  36.2369995  74.8769989  64.4960022
  37.1069984  75.1760025  65.0619965  36.4679985  74.9660034  63.4449997
  35.4280014  75.5550003  64.7259979  36.9729996  72.5699997  64.4789963
  36.7550011  71.5459976  64.7429962  37.1710014  72.6139984  63.4179993
  37.8750000  72.8690033  64.9929962  34.6389999  73.1179962  64.0179977
  33.7960014  73.6869965  64.3820038  34.3959999  72.0709991  64.1250000
  34.7970009  73.3379974  62.9720001  34.3909988  74.2870026  66.8649979
  34.6069984  75.3369980  66.5739975  34.4500008  74.2630005  67.9739990
  32.1479988  72.9810028  67.2549973  30.9279995  72.6630020  66.4499969
  31.8910007  73.6470032  68.5670013  33.0950012  73.9240036  66.3759995
  33.0209999  71.6470032  67.4860001  32.9459991  70.6220016  66.4800034
  33.1980019  71.0240021  65.4759979  31.9099998  70.2239990  66.4260025
  33.8810005  69.3799973  66.7229996  33.5239983  68.5970001  66.0199966
  33.8440018  68.8710022  68.0739975  32.7500000  68.1900024  68.3809967
  31.7689991  68.0380020  67.6640015  32.9490013  67.4759979  69.7220001
  34.0029984  67.1269989  69.7679977  32.2910004  66.5810013  69.7330017
  35.3639984  69.6220016  66.2829971  35.3300018  69.9929962  65.2369995
  35.8779984  68.6380005  66.2450027  36.0639992  70.5920029  67.0940018
  36.8199997  70.1050034  68.0770035  37.0480003  68.9260025  68.2969971
  37.4550018  71.2639999  68.8479996  37.8059998  72.0159988  68.1090012
  38.3380013  70.8710022  69.3949966  32.6510010  68.3720016  70.9420013
  33.2579994  69.3010025  70.8939972  32.9869995  67.8140030  71.8420029
  31.1569996  68.6910019  71.1250000  30.9080009  68.6259995  72.2060013
  30.5540009  67.9120026  70.6100006  30.7350006  70.0810013  70.6129990
  29.6270008  70.1589966  70.6429977  31.0470009  70.1750031  69.5510025
  31.3279991  71.2630005  71.4010010  31.0939999  72.2030029  70.8570023
  32.4350014  71.1679993  71.4189987  30.8190002  71.4020004  72.8450012
  30.9629993  70.4420013  73.3850021  29.7299995  71.6169968  72.8130035
  31.5620003  72.5090027  73.6179962  31.5359993  73.4380035  73.0100021
  32.6300011  72.2129974  73.6949997  30.9559994  72.7779999  74.9749985
  29.9780006  73.2789993  74.9479980  31.5000000  72.4869995  76.1719971
  30.9480000  72.7470016  77.0869980  32.8170013  71.7949982  76.4059982
  33.6440010  72.5149994  76.2269974  32.9599991  70.9570007  75.6910019
  32.9799995  71.2460022  77.8420029  32.8759995  72.0719986  78.5780029
  34.0149994  70.8539963  77.9359970  32.0079994  70.1090012  78.2060013
  32.0579987  69.3489990  77.3970032  30.9659996  70.4950027  78.2419968
  32.3429985  69.4069977  79.5350037  33.4210014  69.1409988  79.5199966
  31.7649994  68.4599991  79.5970001  32.0489998  70.2050018  80.8180008
  32.4329987  71.2429962  80.7190018  32.6139984  69.7180023  81.6419983
  30.5620003  70.2200012  81.2089996  30.1860008  69.1750031  81.2480011
  30.0000000  70.7490005  80.4110031  30.2619991  70.9000015  82.5559998
  29.1590004  70.9980011  82.6510010  30.6870003  71.9260025  82.5400009
  30.7919998  70.1460037  83.7799988  30.3889999  69.1110001  83.8030014
  30.4890003  70.6610031  84.7170029  31.9009991  70.0889969  83.7549973
  36.4640007  71.9160004  69.8339996  35.5489998  72.2369995  69.2910004
  36.9379997  72.8280029  70.2539978  36.0649986  70.9899979  70.9940033
  36.9679985  70.6299973  71.5319977  35.5470009  70.1039963  70.5690002
  35.1069984  71.6699982  71.9850006  34.5449982  70.8980026  72.5520020
  34.3639984  72.2450027  71.3919983  35.7890015  72.6169968  72.9850006
  35.0579987  73.4079971  73.2580032  36.6609993  73.1169968  72.5110016
  36.2169991  71.9209976  74.2870026  36.9420013  71.1080017  74.0699997
  35.3110008  71.4560013  74.7310028  36.8139992  72.8899994  75.3180008
  36.2350006  73.8379974  75.2829971  37.8660011  73.1269989  75.0510025
  36.7330017  72.3529968  76.7539978  37.2929993  71.3990021  76.8479996
  35.6650009  72.1320038  76.9639969  37.2220001  73.3560028  77.8109970
  37.0410004  74.3850021  77.4329987  38.3190002  73.2389984  77.9449997
  36.5029984  73.2310028  79.1660004  35.4379997  73.5120010  79.0220032
  36.9469986  73.9599991  79.8779984  36.5419998  71.8280029  79.7919998
  37.5970001  71.5110016  79.9349976  36.0589981  71.1080017  79.0979996
  35.8059998  71.7649994  81.1389999  34.7789993  72.1689987  81.0120010
  36.3349991  72.4160004  81.8679962  35.7089996  70.3430023  81.7070007
  36.7280006  69.9039993  81.7580032  35.1069984  69.7190018  81.0130005
  35.0789986  70.2929993  83.1050034  34.0660019  70.7470016  83.0559998
  35.6899986  70.9169998  83.7910004  34.9700012  68.8779984  83.6760025
  34.3429985  68.2399979  83.0169983  34.5099983  68.9010010  84.6880035
  35.9770012  68.4169998  83.7570038 128.0599976  77.6110001  66.1780014
 126.7040024  77.4860001  66.8349991 126.5739975  78.3229980  67.5059967
 126.7109985  76.5849991  67.4309998 128.3520050  76.3519974  65.4359970
 127.5410004  76.1660004  64.7480011 129.2850037  76.4150009  64.8949966
 128.3789978  75.5130005  66.1159973 128.0879974  78.7389984  65.2030029
 127.3700027  78.5479965  64.4199982 127.8330002  79.6719971  65.6849976
 129.0630035  78.8170013  64.7450027 129.1139984  77.8190002  67.2160034
 128.9779968  78.7620010  67.7249985 130.0959930  77.8099976  66.7659988
 129.0789948  77.0390015  67.9619980 125.4710007  77.3970032  65.9000015
 125.5090027  78.2320023  65.1689987 124.5510025  77.5619965  66.5009995
 124.9639969  74.8369980  65.9400024 124.8649979  73.7300034  64.9420013
 123.7340012  75.1050034  66.7450027 125.4029999  76.1699982  65.1719971
 126.2060013  74.5709991  66.9140015 126.1050034  73.6559982  68.0100021
 126.5250015  72.6709976  67.7139969 125.0550003  73.4759979  68.3249969
 126.8980026  74.1650009  69.2570038 126.6959991  73.4690018  70.0979996
 126.5210037  75.5130005  69.6029968 125.2890015  75.6460037  70.0729980
 124.5449982  74.7360001  70.4150009 124.9520035  77.1429977  70.1230011
 124.4619980  77.4020004  69.1610031 125.8939972  77.7249985  70.2080002
 128.4320068  74.1090012  68.9869995 128.7089996  74.8919983  68.2490005
 128.6360016  73.1320038  68.4990005 129.2079926  74.1660004  70.2060013
 129.6139984  75.3730011  70.5950012 129.4230042  76.4199982  69.9970016
 130.4259949  75.2649994  71.8929977 130.5630035  76.2939987  72.2900009
 131.4250031  74.8610001  71.6200027 124.0179977  77.5009995  71.2979965
 123.0680008  76.9309998  71.2180023 123.7649994  78.5810013  71.2300034
 124.6600037  77.2360001  72.6669998 125.6419983  77.7519989  72.7259979
 124.8479996  76.1449966  72.7649994 123.7799988  77.7009964  73.8369980
 122.7549973  77.2910004  73.7129974 123.7040024  78.8079987  73.8030014
 124.3109970  77.2809982  75.2180023 123.7450027  77.8300018  76.0000000
 125.3769989  77.5790024  75.3130035 124.1800003  75.7730026  75.4909973
 124.8359985  75.2429962  74.7679977 123.1389999  75.4400024  75.2919998
 124.6139984  75.3669968  76.9150009 125.5070038  75.9739990  77.1760025
 124.9560013  74.3109970  76.8809967 123.5390015  75.4980011  77.9660034
 122.7450027  74.7389984  77.9010010 123.4670029  76.4110031  78.9550018
 122.6139984  76.3560028  79.6470032 124.4199982  77.5449982  79.2490005
 125.1750031  77.6800003  78.4459991 124.9820023  77.3040009  80.1760025
 123.6949997  78.8880005  79.4720001 122.7799988  78.7330017  80.0830002
 123.3710022  79.2819977  78.4850006 124.5429993  79.9540024  80.1900024
 124.0029984  80.9219971  80.1110001 125.5240021  80.0719986  79.6819992
 124.7620010  79.6650009  81.6859970 125.4300003  78.7850037  81.8000031
 123.7809982  79.4029999  82.1389999 125.3420029  80.8659973  82.4499969
 124.6829987  81.7330017  82.2279968 126.3529968  81.1159973  82.0619965
 125.3960037  80.7050018  83.9820023 124.5589981  80.0619965  84.3290024
 125.2360001  81.7160034  84.4140015 126.7379990  80.1940002  84.5410004
 126.7379990  80.3590012  85.6399994 127.5530014  80.8170013  84.1149979
 127.0490036  78.7190018  84.2779999 126.2789993  78.0699997  84.7490005
 128.0410004  78.4440002  84.6949997 127.0609970  78.5100021  83.1869965
 129.7859955  74.3659973  72.9759979 130.5059967  74.2900009  73.8180008
 129.6320038  73.3379974  72.5830002 128.4579926  74.9150009  73.5189972
 127.7200012  74.9420013  72.6880035 128.6000061  75.9599991  73.8700027
 127.8659973  74.0680008  74.6610031 127.8119965  73.0100021  74.3259964
 126.8259964  74.4079971  74.8560028 128.6349945  74.1279984  75.9960022
 129.6929932  73.8310013  75.8330002 128.1790009  73.3779984  76.6770020
 128.5919952  75.5039978  76.6880035 127.5319977  75.8089981  76.8190002
 129.0749969  76.2509995  76.0220032 129.2969971  75.5640030  78.0569992
 129.3009949  76.6129990  78.4209976 130.3569946  75.2659988  77.9079971
 128.7030029  74.6750031  79.1669998 129.4429932  74.6279984  79.9940033
 128.5749969  73.6380005  78.7890015 127.3779984  75.1679993  79.7779999
 126.6210022  75.2699966  78.9720001 127.5270004  76.1679993  80.2389984
 126.8590012  74.1809998  80.8359985 127.6070023  74.0810013  81.6510010
 126.7890015  73.1959991  80.3270035 125.4769974  74.4660034  81.4540024
 125.1589966  73.5339966  81.9680023 124.7389984  74.6630020  80.6470032
 125.4290009  75.5839996  82.5070038 125.6230011  76.5690002  82.0309982
 126.2399979  75.4110031  83.2460022 124.0879974  75.6190033  83.2610016
 123.9420013  74.6340027  83.7509995 123.2659988  75.7659988  82.5279999
 124.0009995  76.7030029  84.3440018 124.2060013  77.6890030  83.8740005
 124.8030014  76.5090027  85.0869980 122.6579971  76.7639999  85.0749969
 122.4309998  75.7890015  85.5579987 121.8359985  77.0080032  84.3700027
 122.6819992  77.5449982  85.8639984 119.8960037  64.1969986  65.2900009
 119.9520035  63.3940010  66.5719986 119.2580032  63.8149986  67.2829971
 120.9390030  63.4990005  66.9980011 120.8180008  63.6030006  64.2770004
 120.5230026  62.5789986  64.0970001 120.7500000  64.1299973  63.3370018
 121.8420029  63.5950012  64.6210022 118.5210037  64.1399994  64.7129974
 117.8180008  64.6729965  65.3359985 118.5000000  64.5569992  63.7169991
 118.2139969  63.1049995  64.6809998 120.2310028  65.6279984  65.5419998
 121.2200012  65.7360001  65.9629974 119.5250015  66.0640030  66.2340012
 120.1719971  66.1940002  64.6240005 119.6330032  61.8820000  66.4580002
 119.8779984  61.4029999  67.4300003 120.3209991  61.4280014  65.7129974
 117.1520004  61.3269997  67.1429977 117.4560013  60.0130005  67.7890015
 115.8170013  61.4350014  66.4749985 118.2850037  61.6329994  66.0540009
 117.3119965  62.4900017  68.2379990 116.7890015  63.8019981  67.9889984
 115.8099976  63.7739983  67.4649963 117.4960022  64.3720016  67.3489990
 116.5719986  64.6460037  69.2919998 116.3219986  65.6660004  68.9280014
 117.7870026  64.6849976  70.0739975 117.8119965  65.6380005  70.9990005
 117.0220032  66.5680008  71.0699997 118.9720001  65.4290009  71.9810028
 118.5279999  65.0589981  72.9300003 119.4280014  66.4229965  72.1790009
 115.3339996  64.1620026  70.1330032 114.4680023  64.1520004  69.4359970
 115.0910034  64.9189987  70.9089966 115.4879990  62.8330002  70.6819992
 116.0289993  62.7709999  71.9010010 116.1890030  63.7179985  72.6569977
 116.4100037  61.3279991  72.2350006 115.9670029  60.6380005  71.4860001
 115.9869995  61.0929985  73.2350006 120.0619965  64.4410019  71.5049973
 120.5299988  64.8420029  70.5810013 119.6119995  63.4550018  71.2580032
 121.1520004  64.2289963  72.5640030 121.4440002  65.2200012  72.9720001
 122.0490036  63.7900009  72.0780029 120.7310028  63.2929993  73.7099991
 120.8339996  62.2439995  73.3610001 119.6589966  63.4539986  73.9530029
 121.5500031  63.4970016  74.9940033 122.6129990  63.6580009  74.7139969
 121.4970016  62.5789986  75.6179962 121.0500031  64.6859970  75.8349991
 120.8170013  65.5210037  75.1409988 121.8610001  65.0279999  76.5130005
 119.8190002  64.3219986  76.6880035 120.1750031  63.8069992  77.6050034
 119.2389984  63.5620003  76.1210022 118.9459991  65.5000000  77.0530014
 119.4830017  66.3970032  77.3929977 117.5999985  65.5270004  76.9789963
 117.0640030  66.4380035  77.2839966 116.7229996  64.3759995  76.5459976
 117.1510010  63.8849983  75.6460037 115.7190018  64.7480011  76.2470016
 116.5459976  63.2869987  77.6250000 117.5459976  62.9239998  77.9469986
 116.0139999  62.4239998  77.1709976 115.7649994  63.7360001  78.8700027
 114.7279968  63.9949989  78.5680008 116.2360001  64.6510010  79.2900009
 115.7119980  62.6580009  79.9629974 116.7480011  62.4729996  80.3170013
 115.3349991  61.7120018  79.5179977 114.8310013  63.0149994  81.1719971
 114.8600006  62.1609993  81.8809967 113.7799988  63.1389999  80.8339996
 115.2710037  64.2809982  81.9229965 115.2070007  65.1539993  81.2389984
 116.3320007  64.1669998  82.2320023 114.4179993  64.5699997  83.1660004
 114.5289993  63.7220001  83.8750000 113.3509979  64.6129990  82.8629990
 114.7919998  65.8769989  83.8700027 114.6500015  66.7389984  83.1829987
 115.8550034  65.8560028  84.1900024 114.1559982  66.0339966  84.7669983
 117.9449997  61.1889992  72.2519989 118.3730011  61.9259987  72.9649963
 118.3310013  61.4449997  71.2429962 118.4459991  59.7840004  72.6200027
 119.5449982  59.7500000  72.4660034 117.9869995  59.0530014  71.9209976
 118.1490021  59.3499985  74.0650024 118.4349976  58.2820015  74.1780014
 117.0569992  59.4169998  74.2610016 118.9000015  60.1650009  75.1299973
 118.6039963  61.2330017  75.0540009 119.9919968  60.1030006  74.9380035
 118.6050034  59.6769981  76.5540009 118.8960037  58.6100006  76.6520004
 117.5090027  59.7430000  76.7220001 119.3170013  60.5000000  77.6360016
 119.1179962  61.5750008  77.4390030 120.4150009  60.3450012  77.5660019
 118.8229980  60.1619987  79.0510025 119.0930023  59.1129990  79.2990036
 117.7149963  60.2360001  79.0530014 119.3580017  61.1080017  80.1380005
 119.0979996  62.1469994  79.8430023 120.4660034  61.0320015  80.1920013
 118.7539978  60.8339996  81.5250015 119.0550003  59.8219986  81.8710022
 117.6470032  60.8380013  81.4300003 119.1449966  61.8730011  82.5889969
 118.9260025  62.8880005  82.1949997 120.2379990  61.8030014  82.7720032
 118.3919983  61.6850014  83.9169998 118.5019989  60.6269989  84.2360001
 117.3109970  61.8720016  83.7379990 118.8649979  62.5800018  85.0749969
 119.9250031  62.3380013  85.3059998 118.2639999  62.3349991  85.9759979
 118.7580032  64.0869980  84.8079987 117.7030029  64.3320007  84.5579987
 119.3820038  64.3389969  83.9240036 119.2170029  64.9359970  85.9950027
 118.6009979  64.7139969  86.8919983 119.1279984  66.0189972  85.7610016
 120.2789993  64.7139969  86.2350006  41.7379990  56.3510017  65.8040009
  41.1220016  57.0139999  64.5879974  41.5130005  56.5289993  63.7060013
  41.4580002  58.0400009  64.5569992  41.5229988  57.2169991  67.0000000
  42.0029984  58.1769981  66.8809967  40.4659996  57.4150009  67.0930023
  41.8750000  56.7410011  67.9039993  41.0820007  55.0349998  66.0530014
  41.4970016  54.5489998  66.9229965  40.0270004  55.2000008  66.2160034
  41.1930008  54.3860016  65.1969986  43.1959991  56.1290016  65.5800018
  43.6479988  55.6489983  66.4359970  43.6990013  57.0639992  65.3820038
  43.3549995  55.4819984  64.7300034  39.5750008  57.0159988  64.4810028
  39.2239990  55.9630013  64.4219971  39.2879982  57.4830017  63.5139999
  38.7420006  59.2350006  65.6289978  37.2750015  59.5159988  65.6630020
  39.5120010  59.9029999  64.5360031  38.9370003  57.6520004  65.5859985
  39.4010010  59.6100006  67.0390015  38.9239998  60.7630005  67.7419968
  37.8339996  60.6860008  67.9390030  39.0929985  61.6800003  67.1360016
  39.6080017  60.9700012  69.1380005  39.2299995  61.9389992  69.5279999
  41.0449982  61.0079994  69.0739975  41.5880013  62.0489998  68.4850006
  40.9930000  63.0250015  68.0459976  43.1139984  61.8889999  68.4670029
  43.5149994  62.7579994  67.9039993  43.3680000  60.9630013  67.9079971
  39.1769981  59.9049988  70.1979980  38.0730019  59.7929993  70.1419983
  39.4379997  60.3240013  71.1930008  39.8390007  58.6329994  70.0139999
  39.5439987  57.7340012  70.9479980  38.6780014  57.8650017  71.8030014
  40.4710007  56.5260010  70.7659988  41.5209999  56.8899994  70.7490005
  40.2379990  56.0769997  69.7770004  43.7430000  61.8699989  69.8840027
  43.2509995  62.6250000  70.5329971  44.8100014  62.1619987  69.7880020
  43.7140007  60.4869995  70.5569992  44.2910004  59.7840004  69.9189987
  42.6739998  60.0989990  70.6119995  44.3339996  60.4700012  71.9639969
  45.2910004  61.0330009  71.9339981  44.5750008  59.4199982  72.2360001
  43.4290009  61.0519981  73.0660019  43.0660019  62.0559998  72.7610016
  44.0429993  61.1800003  73.9830017  42.2309990  60.1510010  73.4179993
  42.6199989  59.1459999  73.6900024  41.5880013  60.0330009  72.5199966
  41.3870010  60.7050018  74.5839996  40.9850006  61.6949997  74.2789993
  42.0699997  60.8909988  75.4400024  40.2490005  59.7879982  74.9680023
  39.5330009  59.5810013  74.1589966  40.0400009  59.2210007  76.1729965
  39.1619987  58.5719986  76.3040009  40.9049988  59.3580017  77.4039993
  41.9739990  59.4620018  77.1169968  40.8339996  58.4329987  78.0159988
  40.5540009  60.5610008  78.3079987  40.6409988  61.5000000  77.7200012
  41.3089981  60.6119995  79.1220016  39.1539993  60.4959984  78.9449997
  39.0610008  59.5909996  79.5830002  38.4140015  60.4039993  78.1210022
  38.7869987  61.7540016  79.7570038  37.6969986  61.9309998  79.6380005
  39.3100014  62.6329994  79.3249969  39.0629997  61.6780014  81.2720032
  38.4650002  60.8499985  81.7109985  38.7080002  62.6240005  81.7330017
  40.5349998  61.4760017  81.6610031  41.1689987  62.1959991  81.0999985
  40.8409996  60.4490013  81.3690033  40.7890015  61.6660004  83.1610031
  40.0579987  61.0530014  83.7289963  40.5979996  62.7290001  83.4229965
  42.1969986  61.2830009  83.6070023  42.3829994  60.2019997  83.4290009
  42.3289986  61.4830017  84.6920013  42.9580002  61.8720016  83.0520020
  40.3040009  55.4570007  71.8669968  40.8590012  54.5480003  71.5520020
  39.2330017  55.1759987  71.9599991  40.8689995  55.8899994  73.2300034
  40.3069992  56.7659988  73.6179962  41.9239998  56.2070007  73.0830002
  40.8460007  54.7680016  74.2829971  41.4430008  55.0800018  75.1669998
  41.3470001  53.8810005  73.8410034  39.4370003  54.3590012  74.7519989
  39.4920006  53.3390007  75.1900024  38.7610016  54.2989998  73.8720016
  38.8160019  55.2980003  75.8040009  37.7239990  55.0979996  75.8460007
  38.9480019  56.3559990  75.4929962  39.3979988  55.0859985  77.2099991
  40.4430008  55.4620018  77.2310028  39.4339981  53.9949989  77.4189987
  38.5940018  55.7589989  78.3359985  37.5519981  55.3730011  78.3199997
  38.5589981  56.8549995  78.1610031  39.2200012  55.4840012  79.7119980
  40.2239990  55.9589996  79.7269974  39.3680000  54.3899994  79.8330002
  38.4280014  55.9930000  80.9280014  38.1160011  57.0480003  80.7750015
  39.1300011  55.9780006  81.7890015  37.2159996  55.1170006  81.2919998
  37.5279999  54.0499992  81.2750015  36.4350014  55.2519989  80.5139999
  36.6100006  55.4160004  82.6770020  35.6440010  54.8750000  82.7600021
  36.3969994  56.5029984  82.7549973  37.5050011  54.9869995  83.8550034
  38.4809990  55.5120010  83.7760010  37.7039986  53.8959999  83.7880020
  36.9049988  55.3139992  85.2310028  35.9539986  54.7540016  85.3570023
  36.6629982  56.3979988  85.2570038  37.8339996  54.9930000  86.4039993
  38.0760002  53.9090004  86.4290009  37.3549995  55.2729988  87.3669968
  38.7830009  55.5639992  86.3109970  42.4389992  83.0540009  64.9010010
  41.9739990  84.0159988  65.9749985  41.6640015  84.9339981  65.4970016
  42.8190002  84.2620010  66.6019974  41.3829994  82.9430008  63.8510017
  40.4599991  82.6740036  64.3420029  41.2340012  83.8860016  63.3470001
  41.6339989  82.1849976  63.1240005  43.7060013  83.5279999  64.2679977
  43.5699997  84.5059967  63.8300018  44.5019989  83.5790024  64.9950027
  44.0070000  82.8470001  63.4860001  42.6459999  81.6940002  65.4810028
  41.7039986  81.3450012  65.8759995  43.3730011  81.7170029  66.2789993
  42.9760017  80.9980011  64.7239990  40.8160019  83.5439987  66.8980026
  40.6180000  84.3580017  67.6289978  41.1829987  82.6729965  67.4830017
  38.7690010  81.9410019  66.4580002  39.5110016  80.7570038  65.9339981
  37.3860016  82.1299973  65.9270020  39.6129990  83.2699966  66.1719971
  38.7050018  81.8460007  68.0569992  38.1259995  82.9020004  68.8379974
  37.5950012  83.6569977  68.2200012  38.9309998  83.4449997  69.3789978
  37.0820007  82.3710022  69.8740005  36.6259995  83.2529984  70.3710022
  37.6899986  81.5009995  70.8560028  38.3940010  82.1419983  71.7809982
  38.4860001  83.3560028  71.8949966  39.0519981  81.1149979  72.7080002
  39.6450005  80.4160004  72.0820007  38.2459984  80.5429993  73.2160034
  35.9109993  81.6289978  69.1640015  36.3629990  80.7570038  68.6460037
  35.4809990  82.3069992  68.3960037  34.8880005  81.2600021  70.1169968
  34.2989998  80.0849991  69.9089966  34.4469986  79.3750000  68.9260025
  33.4259987  79.7379990  71.1149979  32.8170013  78.8450012  70.8550034
  32.7430000  80.5920029  71.3069992  39.9659996  81.7789993  73.7610016
  39.3670006  82.4729996  74.3899994  40.7500000  82.3759995  73.2480011
  40.6489983  80.7460022  74.6669998  41.1699982  80.0049973  74.0250015
  39.8740005  80.2030029  75.2490005  41.6800003  81.3430023  75.6399994
  42.4910011  81.8369980  75.0619965  42.1370010  80.5059967  76.2099991
  41.0950012  82.3470001  76.6439972  40.2159996  81.8850021  77.1419983
  40.7369995  83.2509995  76.1060028  42.1090012  82.7559967  77.7249985
  42.9720001  83.2689972  77.2509995  42.4930000  81.8249969  78.1949997
  41.5200005  83.6350021  78.8470001  42.3009987  83.7379990  79.6309967
  40.6839981  83.0699997  79.3109970  41.0989990  85.0110016  78.3870010
  41.8759995  85.5599976  77.8330002  39.9119987  85.6139984  78.5999985
  39.7599983  86.6350021  78.2190018  38.7319984  85.0279999  79.3369980
  38.7709999  83.9179993  79.3079987  37.7799988  85.3199997  78.8460007
  38.6679993  85.4250031  80.8209991  38.4720001  86.5139999  80.9209976
  39.6469994  85.2089996  81.3010025  37.5960007  84.6419983  81.5899963
  37.7980003  83.5579987  81.4509964  36.5950012  84.8610001  81.1620026
  37.5900002  84.9420013  83.0930023  37.2709999  85.9940033  83.2590027
  38.6279984  84.8389969  83.4739990  36.6899986  83.9909973  83.8949966
  37.0180016  82.9489975  83.6930008  35.6399994  84.0910034  83.5449982
  36.7649994  84.2409973  85.4089966  36.3489990  85.2470016  85.6309967
  37.8370018  84.2470016  85.7030029  36.0400009  83.1839981  86.2600021
  36.2309990  83.4089966  87.3310013  36.4920006  82.1920013  86.0459976
  34.5270004  83.0989990  86.0329971  34.0419998  84.0739975  86.2539978
  34.0810013  82.3239975  86.6930008  34.3050003  82.8259964  84.9800034
  34.2859993  79.4499969  72.3649979  34.9480019  80.3229980  72.5510025
  34.9350014  78.5670013  72.1829987  33.4399986  79.1969986  73.6200027
  32.7630005  78.3349991  73.4400024  32.8059998  80.0910034  73.8050003
  34.2779999  78.9229965  74.8820038  34.8300018  77.9660034  74.7689972
  33.5830002  78.8160019  75.7419968  35.2750015  80.0500031  75.1890030
  34.7410011  81.0139999  75.0520020  36.1129990  80.0220032  74.4589996
  35.8429985  80.0240021  76.6129990  36.4399986  79.1009979  76.7730026
  34.9939995  80.0110016  77.3300018  36.7060013  81.2620010  76.8970032
  36.1349983  82.1559982  76.5680008  37.6380005  81.2210007  76.2939987
  37.0569992  81.4619980  78.3779984  36.1399994  81.3919983  79.0009995
  37.4500008  82.4950027  78.4850006  38.1290016  80.5039978  78.9169998
  38.9850006  80.5029984  78.2089996  37.7309990  79.4680023  78.9670029
  38.6450005  80.9469986  80.2929993  37.8370018  80.8359985  81.0469971
  38.8979988  82.0270004  80.2320023  39.9129982  80.2160034  80.7539978
  40.6739998  80.3079987  79.9509964  39.7000008  79.1350021  80.9000015
  40.5130005  80.8099976  82.0410004  40.6959991  81.8939972  81.8789978
  41.4980011  80.3300018  82.2249985  39.6409988  80.6289978  83.2949982
  39.4150009  79.5479965  83.4110031  38.6790009  81.1689987  83.1610031
  40.3079987  81.1210022  84.5899963  41.3079987  80.6449966  84.6640015
  39.7050018  80.7689972  85.4540024  40.4809990  82.6340027  84.6890030
  41.1370010  83.0049973  83.8720016  40.9480019  82.9049988  85.6589966
  39.4990005  83.1480026  84.6100006  36.4570007  95.6269989  65.1869965
  35.4599991  96.6800003  65.6129990  34.5499992  96.1780014  65.9100037
  35.2270012  97.2969971  64.7580032  35.9360008  94.8880005  64.0029984
  36.6220016  94.1050034  63.7150002  34.9710007  94.4560013  64.2229996
  35.8240013  95.5559998  63.1619987  37.7449989  96.2710037  64.8050003
  37.6100006  96.8750000  63.9199982  38.0439987  96.9420013  65.5970001
  38.5159988  95.5380020  64.6190033  36.6930008  94.6669998  66.3040009
  35.7589989  94.2379990  66.6360016  37.1349983  95.1910019  67.1389999
  37.3479996  93.8690033  65.9879990  35.9049988  97.6250000  66.7490005
  36.3419991  97.0189972  67.5709991  35.0050011  98.1220016  67.1719971
  36.4729996 100.0630035  65.9319992  35.2029991 100.0780029  65.1419983
  37.6380005 100.7509995  65.2969971  36.8829994  98.5599976  66.2860031
  36.1889992 100.7239990  67.3669968  37.2529984 100.8389969  68.3280029
  37.0180016 101.6679993  69.0289993  38.2200012 101.0999985  67.8489990
  37.4799995  99.5559998  69.1979980  37.7210007  98.7350006  68.4889984
  36.2820015  99.2440033  69.9489975  36.2099991  97.9950027  70.3929977
  37.0340004  97.1149979  70.1989975  34.8989983  97.8069992  71.1689987
  34.6269989  96.7310028  71.1250000  34.1030006  98.3929977  70.6620026
  38.7290001  99.7170029  70.1220016  39.5750008 100.0339966  69.4749985
  39.0159988  98.7249985  70.5329971  38.5089989 100.7279968  71.1320038
  38.1360016 100.2649994  72.3270035  38.2309990  99.1050034  72.6989975
  37.5139999 101.4199982  73.1200027  36.6320000 101.7669983  72.5419998
  38.2500000 102.2509995  73.1780014  35.0379982  98.2620010  72.6360016
  35.3779984  99.3190002  72.6470032  35.8129997  97.6549988  73.1520004
  33.7299995  98.1809998  73.4349976  33.4669991  97.1190033  73.6250000
  32.9119987  98.6299973  72.8310013  33.8250008  98.9479980  74.7649994
  34.1170006  99.9950027  74.5329971  34.6300011  98.5090027  75.3919983
  32.5130005  98.9800034  75.5699997  32.3559990  97.9990005  76.0680008
  31.6709995  99.1360016  74.8619995  32.4599991 100.1279984  76.6039963
  31.4540005 100.1569977  77.0749969  32.5810013 101.0770035  76.0390015
  33.5509987 100.0899963  77.6999969  33.5960007 101.0920029  78.1770020
  34.5359993  99.9219971  77.2160034  33.2919998  99.0169983  78.7289963
  32.7859993  98.1210022  78.3369980  33.5800018  99.0759964  80.0449982
  33.3549995  98.2020035  80.6729965  34.3009987 100.1780014  80.7809982
  34.7659988 100.9089966  80.0859985  35.1430016  99.7129974  81.3369980
  33.4620018 100.9749985  81.8099976  32.7029991 100.3310013  82.3030014
  32.9300003 101.7880020  81.2699966  34.3839989 101.5579987  82.8909988
  35.3400002 101.8000031  82.3799973  34.6170006 100.7850037  83.6549988
  33.9480019 102.8649979  83.5709991  33.4879990 103.5640030  82.8399963
  34.8979988 103.3330002  83.9079971  33.0870018 102.7340012  84.8349991
  33.1199989 101.6900024  85.2129974  32.0309982 102.9629974  84.5770035
  33.5680008 103.6620026  85.9680023  34.1829987 104.4889984  85.5530014
  34.2340012 103.0729980  86.6350021  32.4500008 104.2809982  86.8089981
  31.7490005 103.4639969  87.0810013  31.8829994 105.0139999  86.1959991
  32.9529991 104.9479980  88.0910034  33.4980011 104.2089996  88.7160034
  32.1030006 105.3460007  88.6859970  33.6459999 105.7829971  87.8539963
  37.0620003 100.9950027  74.5319977  36.5649986 100.0009995  74.5019989
  36.3050003 101.7210007  74.8970032  38.2150002 100.9820023  75.5439987
  38.7000008 101.9820023  75.5370026  38.9780006 100.2369995  75.2320023
  37.7509995 100.6839981  76.9779968  36.9319992 101.3870010  77.2389984
  38.5890007 100.8789978  77.6809998  37.2540016  99.2480011  77.2050018
  36.4710007  98.9950027  76.4580002  36.7739983  99.2160034  78.2070007
  38.3689995  98.1930008  77.1510010  39.1679993  98.4909973  77.8629990
  38.8149986  98.1869965  76.1330032  37.9020004  96.7639999  77.4899979
  38.7919998  96.0989990  77.4749985  37.2099991  96.4160004  76.6940002
  37.1969986  96.6080017  78.8519974  37.0120010  95.5279999  79.0350037
  36.2080002  97.1119995  78.8050003  37.9790001  97.1940002  80.0390015
  38.0699997  98.2929993  79.9000015  39.0040016  96.7659988  80.0579987
  37.3040009  96.9410019  81.3929977  37.3190002  95.8499985  81.5999985
  36.2430000  97.2639999  81.3420029  37.9869995  97.6790009  82.5540009
  37.8989983  98.7750015  82.3919983  39.0680008  97.4229965  82.5579987
  37.3899994  97.3119965  83.9189987  36.2999992  97.5270004  83.9069977
  37.5139999  96.2190018  84.0709991  38.0480003  98.0390015  85.0989990
  37.8380013  99.1269989  85.0189972  39.1489983  97.9079971  85.0329971
  37.5859985  97.5449982  86.4779968  38.0810013  98.1750031  87.2480011
  37.9449997  96.5019989  86.6139984  36.0740013  97.5790024  86.7080002
  35.5579987  96.8649979  86.0309982  35.6749992  98.5979996  86.5159988
  35.8390007  97.2969971  87.7570038  53.2140007  44.2939987  67.7379990
  52.7159996  43.3050003  66.7089996  51.6510010  43.1860008  66.8450012
  53.1679993  42.3419991  66.8960037  54.6749992  44.5260010  67.5569992
  55.2299995  43.6320000  67.7979965  54.8610001  44.7410011  66.5149994
  55.0270004  45.3419991  68.1699982  52.4900017  45.5880013  67.5839996
  52.6380005  45.9539986  66.5790024  51.4309998  45.4550018  67.7519989
  52.8600006  46.3129997  68.2929993  52.9809990  43.7900009  69.1220016
  53.4059982  44.4770012  69.8389969  53.4459991  42.8230019  69.2500000
  51.9239998  43.7070007  69.3290024  52.9850006  43.6479988  65.2239990
  52.6500015  44.6899986  65.0309982  52.3419991  42.9959984  64.5950012
  54.9430008  42.1809998  64.2549973  56.4339981  42.1910019  64.3410034
  54.3790016  42.0050011  62.8820000  54.3689995  43.5320015  64.8850021
  54.3600006  41.0149994  65.1859970  54.9510002  40.7550011  66.4660034
  55.1209984  41.6899986  67.0429993  55.9300003  40.2459984  66.3369980
  54.0379982  39.8310013  67.3239975  53.7960014  38.9560013  66.6829987
  52.8429985  40.5559998  67.6679993  51.7980003  39.8230019  68.0169983
  51.7560005  38.6010017  68.0520020  50.6240005  40.7709999  68.2839966
  50.1010017  40.9329987  67.3180008  51.0359993  41.7439995  68.6279984
  54.7770004  39.2919998  68.5889969  55.6920013  38.7739983  68.2279968
  54.1619987  38.5070000  69.0780029  55.1819992  40.3450012  69.4940033
  54.3569984  40.5760002  70.5149994  53.2879982  40.0190010  70.7060013
  54.9630013  41.6199989  71.4489975  54.1739998  42.3740005  71.6589966
  55.8190002  42.1269989  70.9540024  49.6230011  40.2490005  69.3389969
  50.1389999  40.1329994  70.3160019  49.2490005  39.2480011  69.0350037
  48.4109993  41.1809998  69.5169983  47.7260017  40.7379990  70.2710037
  47.8559990  41.2210007  68.5550003  48.7480011  42.6269989  69.9329987
  47.7989998  43.1980019  70.0130005  49.3470001  43.1100006  69.1309967
  49.5050011  42.7630005  71.2669983  49.7150002  43.8409996  71.4390030
  50.4830017  42.2420006  71.1959991  48.7200012  42.2239990  72.4749985
  48.5929985  41.1250000  72.3750000  47.7070007  42.6790009  72.4550018
  49.3619995  42.5569992  73.8379974  48.6559982  42.2350006  74.6330032
  49.4379997  43.6619987  73.9169998  50.6940002  41.8769989  74.0510025
  50.6520004  40.7770004  74.0350037  51.8889999  42.4669991  74.2460022
  52.7680016  41.8250008  74.4059982  52.1899986  43.9480019  74.2890015
  51.3559990  44.5439987  73.8610001  53.0810013  44.1679993  73.6620026
  52.4599991  44.4710007  75.7170029  51.5919991  44.2200012  76.3629990
  52.5340004  45.5789986  75.6770020  53.7550011  43.9269981  76.3470001
  54.6139984  44.2439995  75.7180023  53.7299995  42.8160019  76.3359985
  54.0089989  44.3800011  77.7949982  54.0680008  45.4889984  77.8379974
  54.9949989  43.9760017  78.1090012  52.9519997  43.8820000  78.7929993
  52.8240013  42.7869987  78.6500015  51.9770012  44.3699989  78.5790024
  53.3320007  44.1320000  80.2590027  53.4780006  45.2200012  80.4300003
  54.3009987  43.6279984  80.4609985  52.2849998  43.5940018  81.2429962
  52.0690002  42.5379982  80.9739990  51.3409996  44.1679993  81.1220016
  52.7280006  43.6450005  82.7060013  52.8450012  44.6980019  83.0419998
  53.7029991  43.1279984  82.8359985  51.9760017  43.1529999  83.3590012
  55.4049988  40.9550018  72.7699966  56.3019981  40.3250008  72.5889969
  54.5849991  40.2939987  73.1259995  55.7050018  41.9669991  73.8820038
  54.7820015  42.5470009  74.0940018  56.4710007  42.6910019  73.5289993
  56.2010002  41.3300018  75.1900024  56.3079987  42.1329994  75.9499969
  57.2099991  40.8979988  75.0189972  55.2760010  40.2360001  75.7480011
  55.2140007  39.4080009  75.0090027  54.2519989  40.6450005  75.8830032
  55.7700005  39.6489983  77.0780029  56.8639984  39.4659996  77.0110016
  55.2669983  38.6749992  77.2529984  55.4770012  40.5460014  78.2870026
  54.3769989  40.6139984  78.4270020  55.8489990  41.5740013  78.0920029
  56.1339989  40.0219994  79.5709991  57.2340012  40.1220016  79.4580002
  55.9029999  38.9430008  79.7030029  55.6920013  40.7890015  80.8229980
  55.6389999  41.8689995  80.5660019  56.4599991  40.6759987  81.6179962
  54.3330002  40.3320007  81.3769989  53.7700005  39.7750015  80.5979996
  53.7459984  41.2430000  81.6230011  54.4379997  39.4920006  82.6600037
  53.4179993  39.3219986  83.0670013  55.0029984  40.0859985  83.4089966
  55.1240005  38.1320000  82.4589996  56.1220016  38.2859993  81.9950027
  54.5139999  37.5299988  81.7519989  55.3170013  37.3380013  83.7610016
  55.6860008  36.3250008  83.4929962  54.3349991  37.2239990  84.2689972
  56.3289986  37.9809990  84.7200012  55.9749985  38.9939995  85.0100021
  57.2859993  38.1139984  84.1719971  56.5970001  37.1739998  85.9889984
  55.6780014  37.0940018  86.6080017  57.3779984  37.6689987  86.6050034
  56.9550018  36.1529999  85.7379990 124.3970032  52.8349991  65.0189972
 125.8050003  53.3390007  64.7770004 125.7659988  54.4129982  64.6679993
 126.1439972  52.9410019  63.8320007 123.9499969  53.1850014  66.3990021
 124.6090012  52.7130013  67.1129990 123.9820023  54.2540016  66.5510025
 122.9430008  52.8359985  66.5759964 123.4520035  53.4379997  64.0309982
 122.4509964  53.0670013  64.1940002 123.4300003  54.5130005  64.1289978
 123.7419968  53.1899986  63.0209999 124.3710022  51.3520012  64.8659973
 124.6179962  51.0690002  63.8530006 123.4010010  50.9519997  65.1240005
 125.1210022  50.9300003  65.5189972 126.8769989  53.0019989  65.8479996
 126.5979996  53.5219994  66.7890015 127.8359985  53.4539986  65.5120010
 127.0690002  50.9179993  67.4570007 128.3320007  51.2939987  68.1610031
 126.8280029  49.4539986  67.2900009 127.0650024  51.5929985  66.0090027
 125.8119965  51.5870018  68.1949997 125.3470001  51.0419998  69.4380035
 126.1610031  50.5680008  70.0279999 124.5739975  50.2690010  69.2399979
 124.7099991  52.1349983  70.3499985 123.8809967  52.5839996  69.7620010
 125.7080002  53.1320000  70.6640015 125.2340012  54.3030014  71.0599976
 124.0520020  54.5810013  71.2060013 126.3949966  55.2910004  71.2239990
 126.2839966  56.0540009  70.4250031 127.3600006  54.7630005  71.0680008
 124.0869980  51.5070000  71.6389999 123.2789993  50.8170013  71.3140030
 123.5950012  52.3160019  72.2200012 125.0680008  50.7540016  72.3860016
 125.2559967  51.0979996  73.6559982 124.5930023  51.9129982  74.2799988
 126.4390030  50.3110008  74.2239990 126.8460007  49.6199989  73.4550018
 126.0510025  49.7099991  75.0739975 126.3939972  55.9840012  72.6029968
 125.4110031  56.4640007  72.8000031 127.1579971  56.7900009  72.5800018
 126.7490005  55.0180016  73.7419968 127.6999969  54.5029984  73.4860001
 125.9599991  54.2400017  73.8280029 126.9219971  55.7019997  75.1070023
 125.9649963  56.1749992  75.4140015 127.6839981  56.5060005  75.0139999
 127.3870010  54.7229996  76.1940002 128.3179932  54.2299995  75.8389969
 126.6230011  53.9280014  76.3300018 127.6610031  55.3800011  77.5579987
 126.6900024  55.6940002  77.9970016 128.2749939  56.2949982  77.4229965
 128.3569946  54.4280014  78.5500031 127.7929993  53.4710007  78.5569992
 128.2590027  54.8460007  79.5739975 129.8110046  54.1879997  78.2360001
 130.1750031  54.6469994  77.3050003 130.6739960  53.5110016  79.0139999
 131.7200012  53.4189987  78.6880035 130.3470001  52.8180008  80.3160019
 130.9819946  51.9109993  80.4100037 129.2899933  52.4770012  80.3389969
 130.5910034  53.7000008  81.5550003 129.8370056  54.5159988  81.5569992
 131.5930023  54.1769981  81.4940033 130.5079956  52.9669991  82.9020004
 131.3159943  52.2060013  82.9570007 129.5359955  52.4360008  82.9899979
 130.6439972  53.9480019  84.0739975 129.7850037  54.6500015  84.0120010
 131.5659943  54.5519981  83.9380035 130.6529999  53.3219986  85.4789963
 129.9309998  52.4790001  85.5230026 130.2960052  54.1059990  86.1809998
 132.0549927  52.8989983  85.9520035 132.7610016  53.7140007  85.6829987
 132.3670044  51.9830017  85.4059982 132.1770020  52.6759987  87.4710007
 131.8820038  53.6160011  87.9860001 133.2460022  52.4939995  87.7129974
 131.3350067  51.5200005  88.0220032 131.4570007  51.4370003  89.1240005
 131.6380005  50.5569992  87.5589981 130.2599945  51.6949997  87.8020020
 127.5370026  51.2659988  74.7279968 127.0800018  52.0110016  75.4140015
 127.9599991  51.8279991  73.8679962 128.6790009  50.5639992  75.4820023
 129.4080048  51.3460007  75.7850037 129.2019958  49.8650017  74.7939987
 128.2570038  49.7960014  76.7500000 129.1779938  49.5340004  77.3150024
 127.7590027  48.8440018  76.4660034 127.3099976  50.5800018  77.6740036
 126.2799988  50.5159988  77.2620010 127.6070023  51.6510010  77.6610031
 127.3170013  50.0929985  79.1299973 128.2380066  50.4729996  79.6230011
 127.3629990  48.9830017  79.1320038 126.0920029  50.5099983  79.9639969
 126.2360001  50.1500015  81.0049973 125.1999969  49.9939995  79.5500031
 125.7819977  52.0149994  80.0039978 125.4670029  52.3279991  78.9860001
 126.6959991  52.5859985  80.2740021 124.6640015  52.3670006  81.0039978
 125.1050034  52.4379997  82.0210037 123.9219971  51.5410004  81.0139999
 123.9250031  53.6769981  80.6740036 123.3870010  53.5320015  79.7129974
 124.6829987  54.4739990  80.5210037 122.9209976  54.1790009  81.7369995
 122.3550034  55.0200005  81.2819977 123.4729996  54.5940018  82.6080017
 121.9120026  53.1349983  82.2500000 121.7639999  52.3880005  81.4410019
 120.9329987  53.6279984  82.4300003 122.3300018  52.4099998  83.5459976
 123.3990021  52.1170006  83.4729996 121.7320023  51.4790001  83.6449966
 122.1210022  53.2420006  84.8170013 121.0559998  53.5540009  84.8669968
 122.7360001  54.1619987  84.7229996 122.5110016  52.5550003  86.1240005
 122.2180023  53.1800003  86.9940033 123.6129990  52.4179993  86.1620026
 122.0260010  51.5600014  86.2170029  45.2280006  72.3529968  65.5599976
  43.7410011  72.5270004  65.3389969  43.3580017  71.6179962  64.8990021
  43.5900002  73.3180008  64.6190033  45.4879990  71.2220001  66.5000000
  45.0239983  71.4219971  67.4540024  45.0880013  70.2979965  66.1090012
  46.5489998  71.0930023  66.6559982  45.9080009  72.0429993  64.2679977
  45.5260010  71.1220016  63.8540001  45.7470016  72.8280029  63.5439987
  46.9690018  71.9120026  64.4240036  45.8009987  73.5930023  66.1539993
  45.2229996  73.8369980  67.0329971  45.7039986  74.4199982  65.4670029
  46.8359985  73.4509964  66.4300003  42.8860016  72.8779984  66.5820007
  43.1520004  72.1869965  67.4089966  41.8180008  72.6770020  66.3470001
  42.2879982  75.4049988  66.2809982  40.8310013  75.2819977  66.5839996
  42.6609993  75.4489975  64.8349991  43.0900002  74.2269974  67.0139999
  42.8320007  76.7330017  66.9909973  44.2379990  76.9729996  67.1380005
  44.4179993  78.0690002  67.0879974  44.8289986  76.5189972  66.3140030
  44.8149986  76.4749985  68.5029984  44.6780014  75.3720016  68.5149994
  44.1199989  77.1419983  69.5800018  43.7760010  76.3679962  70.6019974
  44.0369987  75.1790009  70.7210007  43.0009995  77.2099991  71.6230011
  42.2579994  77.8270035  71.0739975  43.7239990  77.8840027  72.1289978
  46.3489990  76.7549973  68.5709991  46.5239983  77.8519974  68.5790024
  46.7840004  76.3809967  67.6190033  47.0050011  76.0619965  69.6559982
  47.1689987  76.7519989  70.7860031  46.7919998  77.8960037  70.9769974
  47.9900017  75.9120026  71.7699966  49.0460014  76.2440033  71.6760025
  47.9319992  74.8410034  71.4820023  42.2770004  76.3369980  72.6689987
  43.0279999  75.7519989  73.2409973  41.6080017  75.6179962  72.1500015
  41.4339981  77.1679993  73.6490021  40.7480011  77.8160019  73.0640030
  42.1049995  77.8300018  74.2369995  40.5900002  76.3209991  74.6179962
  39.9319992  75.6449966  74.0309982  39.9360008  77.0009995  75.2050018
  41.4249992  75.4850006  75.5989990  42.0540009  76.1699982  76.2080002
  42.1100006  74.8229980  75.0270004  40.5660019  74.6269989  76.5400009
  39.9249992  73.9479980  75.9369965  39.8880005  75.3020020  77.1050034
  41.3820000  73.8020020  77.5569992  40.6640015  73.3249969  78.2580032
  41.9860001  74.5149994  78.1579971  42.2299995  72.7330017  76.9069977
  41.6829987  72.0899963  76.2020035  43.5480003  72.5120010  77.0859985
  44.0209999  71.6859970  76.5350037  44.4850006  73.2679977  77.9970016
  44.0180016  74.1910019  78.4029999  45.3810005  73.5999985  77.4300003
  44.9490013  72.4150009  79.1920013  45.5159988  71.5319977  78.8290024
  44.0589981  72.0479965  79.7470016  45.8260002  73.2060013  80.1729965
  45.2729988  74.1179962  80.4820023  46.7560005  73.5299988  79.6579971
  46.1889992  72.4059982  81.4319992  46.8079987  71.5279999  81.1490021
  45.2529984  72.0270004  81.8949966  46.9379997  73.2460022  82.4769974
  46.3240013  74.1380005  82.7229996  47.8930016  73.6009979  82.0329971
  47.2220001  72.4749985  83.7740021  47.8689995  71.6029968  83.5400009
  46.2599983  72.0859985  84.1699982  47.8950005  73.3170013  84.8690033
  48.0019989  72.6829987  85.7750015  47.2179985  74.1589966  85.1299973
  49.2700005  73.8779984  84.4929962  49.9580002  73.0540009  84.2040024
  49.7150002  74.4229965  85.3529968  49.1860008  74.5839996  83.6399994
  47.5250015  76.0869980  73.2320023  47.4650002  77.1650009  73.4940033
  48.2830009  75.6240005  73.8990021  46.1759987  75.4069977  73.5080032
  46.2430000  74.3450012  73.1869965  45.3839989  75.8929977  72.8990021
  45.7500000  75.4449997  74.9840012  46.5740013  75.0469971  75.6149979
  44.8740005  74.7750015  75.1179962  45.3549995  76.8460007  75.4729996
  44.5120010  77.2170029  74.8509979  46.2109985  77.5419998  75.3399963
  44.9290009  76.8619995  76.9479980  45.7700005  76.4729996  77.5609970
  44.0699997  76.1699982  77.0830002  44.5320015  78.2600021  77.4489975
  43.7319984  78.6600037  76.7900009  45.4109993  78.9329987  77.3580017
  44.0270004  78.2890015  78.9039993  43.0830002  77.7060013  78.9619980
  43.7900009  79.3399963  79.1750031  45.0299988  77.7210007  79.9250031
  46.0159988  78.2080002  79.7669983  45.1549988  76.6340027  79.7300034
  44.6259995  77.9059982  81.4010010  44.6679993  78.9850006  81.6610031
  45.3720016  77.3759995  82.0309982  43.2239990  77.3720016  81.7409973
  43.0870018  76.3809967  81.2580032  42.4690018  78.0630035  81.3079987
  42.9389992  77.2139969  83.2460022  43.5320015  76.3580017  83.6360016
  41.8650017  76.9580002  83.3679962  43.2519989  78.4499969  84.1050034
  44.3530006  78.5429993  84.2229996  42.8909988  79.3600006  83.5790024
  42.6040001  78.4339981  85.5000000  41.5050011  78.5260010  85.3639984
  42.9469986  79.3359985  86.0510025  42.8829994  77.1940002  86.3420029
  42.4269981  77.2880020  87.3499985  43.9770012  77.0370026  86.4589996
  42.4519997  76.2979965  85.8460007 135.4230042 101.8259964  65.0820007
 136.8329926 101.4479980  65.4899979 136.8719940 101.3580017  66.5650024
 137.4980011 102.2500000  65.2070007 135.3209991 101.9290009  63.5950012
 135.9929962 102.6839981  63.2130013 135.5800018 100.9810028  63.1479988
 134.3139954 102.1829987  63.2980003 134.4790039 100.7699966  65.5490036
 133.4869995 100.9229965  65.1490021 134.8650055  99.8140030  65.2269974
 134.4440002 100.7419968  66.6279984 135.0290070 103.1360016  65.6819992
 135.0690002 103.0920029  66.7600021 134.0200043 103.3899994  65.3919983
 135.6829987 103.9250031  65.3410034 137.3990021 100.1169968  64.9280014
 138.4940033 100.0869980  65.1169968 137.2760010 100.1070023  63.8240013
 137.1190033  98.4700012  66.9609985 138.0180054  97.2799988  66.8160019
 135.8439941  98.2490005  67.7099991 136.7500000  98.9720001  65.4810028
 137.9329987  99.7020035  67.6110001 139.0339966  99.4789963  68.5049973
 139.8300018 100.2170029  68.2649994 139.4989929  98.4769974  68.3889999
 138.6869965  99.6689987  70.0240021 139.6640015  99.5940018  70.5479965
 137.8379974  98.5930023  70.4850006 137.5690002  98.5729980  71.7850037
 138.1439972  99.2360001  72.6380005 136.4700012  97.5339966  72.0510025
 136.9519958  96.5490036  72.2310028 135.8540039  97.4530029  71.1299973
 138.1380005 101.1110001  70.3389969 138.7510071 101.8219986  69.7440033
 138.3190002 101.3310013  71.4130020 136.7339935 101.2570038  70.0309982
 136.2610016 102.4850006  70.2350006 136.9360046 103.4520035  70.5609970
 134.7489929 102.5049973  70.0130005 134.4409943 101.5800018  69.4810028
 134.5090027 103.3779984  69.3700027 135.5350037  97.9049988  73.2200012
 134.5930023  97.3300018  73.0979996 135.2689972  98.9830017  73.1699982
 136.0899963  97.5770035  74.6139984 137.0189972  98.1579971  74.7979965
 136.3470001  96.4960022  74.6529999 135.0700073  97.8840027  75.7279968
 134.1219940  97.3769989  75.4479980 134.8619995  98.9749985  75.7720032
 135.4640045  97.3659973  77.1269989 136.0959930  96.4570007  77.0319977
 134.5249939  97.0579987  77.6350021 136.1340027  98.4010010  78.0670013
 136.2319946  97.9309998  79.0690002 135.4519958  99.2710037  78.1750031
 137.5299988  98.9260025  77.6419983 137.8800049  99.6060028  78.4469986
 137.4100037  99.5380020  76.7220001 138.5200043  97.8079987  77.3929977
 138.3959961  97.3089981  76.4209976 139.4799957  97.3619995  78.2279968
 140.0850067  96.5070038  77.8899994 139.8220062  97.8479996  79.6210022
 139.3009949  97.1989975  80.3580017 139.4779968  98.8889999  79.7959976
 141.3439941  97.7480011  79.9039993 141.8690033  98.6169968  79.4530029
 141.7449951  96.8239975  79.4359970 141.6710052  97.6370010  81.4069977
 142.7599945  97.4449997  81.5199966 141.1369934  96.7500000  81.8099976
 141.2910004  98.8619995  82.2590027 140.2339935  99.1269989  82.0400009
 141.9210052  99.7340012  81.9800034 141.4010010  98.5830002  83.7710037
 142.4400024  98.2900009  84.0309982 140.7469940  97.7080002  83.9759979
 140.9539948  99.7620010  84.6529999 140.0310059 100.1989975  84.2149963
 141.7319946 100.5550003  84.6409988 140.6430054  99.3830032  86.1080017
 140.4720001 100.3180008  86.6819992 141.5229950  98.8759995  86.5579987
 139.4080048  98.4909973  86.2610016 138.5420074  98.9479980  85.7360001
 139.1410065  98.3649979  87.3320007 139.5930023  97.4869995  85.8209991
 134.0000000 102.6149979  71.3560028 132.9089966 102.6320038  71.1460037
 134.2519989 103.5729980  71.8600006 134.2940063 101.4349976  72.2929993
 135.3220062 101.5319977  72.7020035 134.2630005 100.5000000  71.6930008
 133.3029938 101.2620010  73.4560013 133.6269989 100.3860016  74.0579987
 132.2989960 101.0250015  73.0429993 133.1699982 102.4720001  74.3929977
 132.6770020 103.3020020  73.8420029 134.1790009 102.8190002  74.7020035
 132.3509979 102.1399994  75.6520004 132.9369965 101.4390030  76.2839966
 131.4270020 101.6070023  75.3410034 131.9309998 103.3519974  76.5039978
 131.3619995 102.9789963  77.3830032 131.2369995 103.9789963  75.9039993
 133.0760040 104.2529984  77.0039978 132.6349945 105.0820007  77.5979996
 133.5679932 104.7139969  76.1210022 134.1600037 103.5630035  77.8550034
 134.9029999 104.3369980  78.1439972 134.6849976 102.8059998  77.2340012
 133.6369934 102.8840027  79.1309967 133.0169983 102.0070038  78.8460007
 132.9839935 103.5979996  79.6790009 134.7579956 102.4290009  80.0800018
 135.3159943 103.3290024  80.4179993 135.4660034 101.7750015  79.5279999
 134.2409973 101.6750031  81.3170013 133.8489990 100.6849976  80.9990005
 133.3939972 102.2490005  81.7490005 135.2870026 101.4749985  82.4280014
 134.8040009 100.9189987  83.2600021 135.5879974 102.4680023  82.8249969
 136.5460052 100.7080002  81.9980011 137.0959930 101.2939987  81.2320023
 136.2319946  99.7549973  81.5199966 137.4819946 100.3870010  83.1610031
 138.3200073  99.7419968  82.8190002 136.9380035  99.8430023  83.9619980
 137.9040070 101.3170013  83.5999985 114.2900009  38.7029991  66.7839966
 114.4909973  40.2050018  66.8730011 115.4459991  40.3899994  67.3420029
 113.7360001  40.6180000  67.5260010 112.9520035  38.4000015  66.1959991
 112.1620026  38.6920013  66.8720016 112.8359985  38.9819984  65.2939987
 112.8489990  37.3499985  65.9629974 115.3359985  38.0849991  65.9120026
 115.2720032  38.4970016  64.9160004 116.3280029  38.2729988  66.2969971
 115.1949997  37.0159988  65.8430023 114.3700027  38.0919991  68.1439972
 114.1959991  37.0270004  68.0859985 113.6259995  38.5239983  68.7969971
 115.3470001  38.2420006  68.5790024 114.4369965  41.0159988  65.5520020
 115.1380005  40.5579987  64.8209991 114.8320007  42.0340004  65.7570038
 112.1250000  42.2519989  65.3290024 110.7429962  41.8450012  64.9319992
 112.6380005  43.5009995  64.6900024 113.1250000  41.0499992  64.9830017
 112.2109985  42.4199982  66.9280014 111.4970016  41.4819984  67.7500000
 111.6859970  40.4339981  67.4349976 110.4029999  41.6679993  67.6839981
 111.8889999  41.5760002  69.2570038 111.6380005  42.6110001  69.5749969
 113.3010025  41.3139992  69.4260025 113.7939987  41.7060013  70.5940018
 113.2109985  42.3940010  71.4199982 115.1999969  41.1209984  70.7610016
 115.6460037  40.9599991  69.7559967 115.0899963  40.1360016  71.2630005
 111.0400009  40.5890007  70.1179962 109.9649963  40.7970009  69.9270020
 111.2490005  40.8160019  71.1849976 111.3470001  39.2150002  69.7829971
 111.0070038  38.3339996  70.7289963 110.3919983  38.5989990  71.7480011
 111.5120010  36.9410019  70.3450012 112.0000000  36.9720001  69.3479996
 110.6240005  36.2770004  70.2779999 116.1259995  42.0359993  71.5899963
 115.7060013  42.1860008  72.6070023 116.1770020  43.0320015  71.0999985
 117.5599976  41.4879990  71.7020035 118.2109985  42.2729988  72.1439972
 117.9369965  41.2910004  70.6760025 117.6999969  40.1969986  72.5329971
 118.7300034  39.8009987  72.4059982 117.0019989  39.4309998  72.1330032
 117.4359970  40.3720016  74.0390015 117.3840027  39.3660011  74.5080032
 116.4479980  40.8569984  74.1869965 118.5230026  41.1829987  74.7649994
 118.6080017  42.1920013  74.3079987 119.4960022  40.6699982  74.6129990
 118.2839966  41.3260002  76.2829971 119.2009964  41.7709999  76.7239990
 118.1790009  40.3069992  76.7129974 117.1019974  42.2109985  76.6050034
 117.0520020  43.1300011  76.0039978 116.1449966  41.9970016  77.5289993
 115.3629990  42.7589989  77.6569977 116.0299988  40.8279991  78.4800034
 116.6210022  39.9560013  78.1259995 114.9739990  40.4879990  78.5329971
 116.5110016  41.1710014  79.9069977 117.5780029  41.4799995  79.8679962
 116.4560013  40.2490005  80.5250015 115.6959991  42.2719994  80.6129990
 114.6320038  41.9589996  80.6829987 115.7440033  43.1899986  79.9889984
 116.2170029  42.6139984  82.0220032 117.2979965  42.8569984  81.9509964
 116.1110001  41.7200012  82.6729965 115.5080032  43.7970009  82.7070007
 115.9889984  43.9589996  83.6949997 114.4430008  43.5400009  82.8919983
 115.5739975  45.1059990  81.9089966 114.9280014  45.0120010  81.0100021
 116.6220016  45.2490005  81.5680008 115.1460037  46.3429985  82.7060013
 115.8440018  46.4770012  83.5599976 114.1399994  46.1450005  83.1330032
 115.0810013  47.6320000  81.8870010 114.3539963  47.5250015  81.0530014
 116.0800018  47.8680000  81.4609985 114.7600021  48.4819984  82.5260010
 112.4820023  36.4070015  71.4199982 112.7239990  35.3429985  71.2109985
 111.9599991  36.4259987  72.4010010 113.7959976  37.2070007  71.4960022
 113.6190033  38.2540016  71.1699982 114.5179977  36.7630005  70.7779999
 114.4400024  37.2449989  72.8949966 115.4339981  37.7360001  72.8180008
 114.6100006  36.2000008  73.2320023 113.6220016  37.9860001  73.9720001
 114.1259995  37.8450012  74.9520035 112.6139984  37.5250015  74.0540009
 113.4489975  39.4970016  73.7300034 113.1419983  39.6660004  72.6750031
 114.4260025  40.0040016  73.8809967 112.3750000  40.1539993  74.6159973
 111.3919983  39.7150002  74.3389969 112.3310013  41.2400017  74.3850021
 112.5749969  39.9659996  76.1279984 113.5130005  40.4669991  76.4499969
 112.6800003  38.8810005  76.3450012 111.3929977  40.4930000  76.9570007
 110.4560013  40.0629997  76.5419998 111.3280029  41.5979996  76.8610001
 111.4820023  40.1069984  78.4410019 112.3690033  40.5970001  78.8970032
 111.6330032  39.0079994  78.5039978 110.2239990  40.4830017  79.2389984
 109.3369980  39.9970016  78.7779999 110.0749969  41.5820007  79.1709976
 110.2779999  40.0870018  80.7249985 109.3639984  40.4749985  81.2229996
 111.1520004  40.5779991  81.2020035 110.3499985  38.5699997  80.9609985
 111.2939987  38.1759987  80.5270004 109.5009995  38.0870018  80.4319992
 110.2910004  38.1790009  82.4430008 109.3270035  38.5390015  82.8619995
 111.1080017  38.7029991  82.9840012 110.4169998  36.6749992  82.6869965
 111.3909988  36.2980003  82.3079987 109.6009979  36.1279984  82.1679993
 110.3529968  36.4539986  83.7740021  80.0139999 138.7250061  68.1269989
  79.4339981 139.0789948  66.7750015  78.8720016 139.9960022  66.8710022
  78.7310028 138.3139954  66.4820023  80.9020004 137.5379944  67.9940033
  81.6579971 137.7519989  67.2539978  81.3539963 137.2660065  68.9369965
  80.3489990 136.6979980  67.5999985  80.8089981 139.8719940  68.6579971
  81.2509995 139.6280060  69.6129990  81.5989990 140.1239929  67.9660034
  80.1839981 140.7449951  68.7839966  78.9160004 138.4049988  69.0879974
  78.2829971 139.2649994  69.2450027  79.3209991 138.0959930  70.0410004
  78.2979965 137.6029968  68.7109985  80.4339981 139.2209930  65.5999985
  81.2509995 139.9100037  65.9029999  79.9169998 139.6979980  64.7399979
  80.1100006 136.8860016  64.4440002  80.4649963 135.5370026  64.9700012
  80.2580032 137.0870056  62.9710007  81.0000000 137.9680023  65.2149963
  78.6110001 137.2409973  64.8600006  77.5719986 136.2619934  64.9509964
  77.9029999 135.2409973  64.6660004  76.7649994 136.5420074  64.2409973
  76.9440002 136.1889954  66.3789978  76.0100021 135.5910034  66.3270035
  76.6740036 137.5050049  66.8990021  75.5820007 138.0820007  66.4309998
  74.8590012 137.6620026  65.5390015  75.3059998 139.3419952  67.2539978
  74.3710022 139.8029938  66.8679962  76.1480026 140.0509949  67.1039963
  77.8750000 135.4400024  67.3789978  78.9039993 135.8320007  67.2350006
  77.8759995 134.3659973  67.0950012  77.4660034 135.6759949  68.7440033
  77.5240021 134.6629944  69.5979996  77.9459991 133.5420074  69.3509979
  76.9599991 135.1300049  70.9430008  77.0830002 136.2319946  71.0130005
  77.5540009 134.6620026  71.7570038  75.1500015 138.9980011  68.7500000
  76.1149979 138.5989990  69.1299973  74.3980026 138.1889954  68.8750000
  74.7180023 140.1909943  69.6119995  73.6770020 140.4600067  69.3320007
  75.3659973 141.0679932  69.4010010  74.7669983 139.8760071  71.1159973
  74.3249969 138.8699951  71.2789993  74.1470032 140.6109924  71.6719971
  76.1930008 139.9060059  71.6910019  76.5510025 140.9570007  71.7269974
  76.8639984 139.3419952  71.0090027  76.2969971 139.2709961  73.0859985
  76.0179977 138.1979980  73.0070038  75.5609970 139.7570038  73.7610016
  77.6949997 139.3760071  73.7310028  77.6350021 138.8829956  74.7239990
  77.9079971 140.4479980  73.9260025  78.8089981 138.7839966  72.8990021
  79.1579971 139.4290009  72.0790024  79.4110031 137.5910034  73.0800018
  80.2350006 137.3099976  72.4079971  79.0790024 136.5610046  74.1340027
  78.9759979 135.5670013  73.6490021  78.0979996 136.7700043  74.6110001
  80.1380005 136.4349976  75.2539978  81.1269989 136.2239990  74.7939987
  79.8759995 135.5610046  75.8880005  80.2549973 137.6690063  76.1719971
  80.3420029 138.5820007  75.5449982  81.1839981 137.5850067  76.7750015
  79.0650024 137.8119965  77.1289978  79.1110001 136.9920044  77.8779984
  78.1259995 137.6829987  76.5490036  78.9729996 139.1510010  77.8669968
  78.9749985 139.9730072  77.1190033  79.8639984 139.2760010  78.5179977
  77.6930008 139.2440033  78.7129974  77.7099991 138.4429932  79.4820023
  76.8190002 139.0529938  78.0540009  77.5080032 140.6029968  79.3990021
  77.5289993 141.3950043  78.6210022  78.3710022 140.7760010  80.0780029
  76.2070007 140.7180023  80.1979980  76.1740036 139.9470062  80.9980011
  75.3270035 140.5709991  79.5360031  76.1240005 141.7180023  80.6760025
  75.4649963 134.7660065  71.0830002  75.3679962 133.6799927  71.2919998
  74.9489975 134.9720001  70.1210022  74.7229996 135.5690002  72.1660004
  73.6709976 135.2149963  72.2070007  74.7050018 136.6390076  71.8690033
  75.3320007 135.4640045  73.5690002  76.3470001 135.9170074  73.5520020
  75.4390030 134.3919983  73.8410034  74.5029984 136.1829987  74.6490021
  73.5479965 135.6329956  74.7949982  74.2559967 137.2010040  74.2809982
  75.2289963 136.3249969  75.9990005  74.5839996 136.8809967  76.7129974
  76.1460037 136.9290009  75.8290024  75.6490021 134.9850006  76.6240005
  76.2289963 134.4250031  75.8590012  74.7580032 134.3730011  76.8799973
  76.5640030 135.1329956  77.8470001  75.9759979 135.4049988  78.7500000
  77.2649994 135.9689941  77.6389999  77.4100037 133.8760071  78.1009979
  77.8320007 133.5570068  77.1240005  76.7590027 133.0549927  78.4700012
  78.5869980 134.0619965  79.0719986  79.1090012 135.0220032  78.8740005
  79.3079987 133.2409973  78.8690033  78.1890030 133.9550018  80.5490036
  79.0449982 133.5440063  81.1259995  77.3570023 133.2250061  80.6470032
  77.7730026 135.2810059  81.1979980  76.8679962 135.0720062  81.8069992
  77.4889984 136.0370026  80.4339981  78.8290024 135.8430023  82.1539993
  79.6490021 136.3289948  81.5820007  79.2659988 134.9850006  82.7099991
  78.2630005 136.7969971  83.2070007  78.9499969 136.7839966  84.0800018
  77.2880020 136.3959961  83.5579987  78.0950012 138.2369995  82.7369995
  77.6660004 138.8480072  83.5589981  77.4069977 138.2830048  81.8649979
  79.0749969 138.6679993  82.4390030  63.7639999  37.5159988  64.1100006
  64.9789963  37.5660019  65.0139999  64.7009964  38.0680008  65.9290009
  65.7409973  38.1580009  64.5299988  62.6529999  36.7989998  64.8010025
  62.3230019  37.3530006  65.6669998  61.8139992  36.6380005  64.1409988
  63.0260010  35.8479996  65.1539993  63.3069992  38.9000015  63.7750015
  64.0759964  39.4459991  63.2490005  62.4339981  38.8619995  63.1389999
  63.0449982  39.4430008  64.6699982  64.0849991  36.7939987  62.8409996
  64.3960037  35.7840004  63.0639992  64.8840027  37.2859993  62.3059998
  63.2200012  36.7480011  62.1959991  65.5950012  36.2099991  65.4479980
  66.5910034  36.3950005  65.9029999  65.7760010  35.5859985  64.5469971
  64.6679993  35.9580002  67.8799973  63.5239983  35.2459984  68.5260010
  64.6460037  37.4480019  67.9690018  64.7369995  35.5009995  66.3450012
  66.0540009  35.4189987  68.4789963  66.4420013  34.0439987  68.3020020
  67.3889999  33.9959984  67.7229996  65.6920013  33.4570007  67.7300034
  66.6600037  33.2649994  69.6490021  66.6689987  32.1889992  69.3710022
  65.5719986  33.5400009  70.5569992  65.4110031  32.6839981  71.5510025
  66.0159988  31.6289997  71.6890030  64.3050003  33.2270012  72.4629974
  63.3549995  33.1749992  71.8880005  64.5220032  34.2949982  72.6790009
  68.0609970  33.5629997  70.2990036  68.8229980  33.3380013  69.5220032
  68.2529984  32.8540001  71.1320038  68.2129974  34.9449997  70.6969986
  67.8020020  35.2379990  71.9319992  67.5490036  34.4210014  72.8040009
  67.7020035  36.7579994  72.0790024  67.2220001  37.1539993  71.1589966
  68.7340012  37.1629982  72.1480026  64.1480026  32.4529991  73.7860031
  64.0619965  31.3610001  73.6019974  63.2000008  32.7809982  74.2630005
  65.2870026  32.7290001  74.7770004  65.4260025  33.8269997  74.8730011
  66.2360001  32.3050003  74.3850021  65.0049973  32.1489983  76.1679993
  64.8669968  31.0489998  76.0869980  64.0479965  32.5810013  76.5309982
  66.0989990  32.4519997  77.2009964  66.2600021  33.5509987  77.2180023
  67.0540009  31.9720001  76.8970032  65.6999969  31.9939995  78.6139984
  65.6940002  30.8850002  78.6780014  64.6589966  32.3400002  78.7870026
  66.5579987  32.6069984  79.7389984  65.9589996  32.5190010  80.6709976
  66.6460037  33.6959991  79.5410004  67.9329987  32.0070000  79.9229965
  68.4960022  31.8400002  78.9929962  68.5159988  31.7049999  81.1050034
  69.5380020  31.2980003  81.1019974  67.9069977  31.8729992  82.4800034
  68.1920013  31.0119991  83.1220016  66.7969971  31.8560009  82.4300003
  68.2990036  33.1679993  83.2300034  69.3730011  33.1360016  83.5100021
  67.7119980  33.1959991  84.1729965  68.0220032  34.4659996  82.4479980
  67.0230026  34.3979988  81.9670029  68.7770004  34.5540009  81.6370010
  68.0660019  35.7249985  83.3259964  68.9700012  35.6710014  83.9690018
  67.1780014  35.7369995  83.9929962  68.1269989  37.0439987  82.5350037
  67.1940002  37.1800003  81.9479980  68.9759979  36.9739990  81.8219986
  68.3649979  38.2680016  83.4329987  68.7170029  39.1240005  82.8190002
  69.1760025  38.0120010  84.1490021  67.1389999  38.7109985  84.2360001
  66.7320023  37.8230019  84.7659988  66.3550034  39.0620003  83.5319977
  67.4150009  39.7980003  85.2710037  67.9459991  40.6529999  84.8000031
  68.0530014  39.4000015  86.0889969  66.4680023  40.1699982  85.7170029
  66.8710022  37.1829987  73.3130035  67.3619995  36.8199997  74.2409973
  65.8590012  36.7280006  73.2549973  66.7279968  38.7089996  73.3720016
  66.2860031  39.0620003  72.4160004  67.7460022  39.1479988  73.4459991
  65.8730011  39.2529984  74.5270004  64.8399963  38.8499985  74.4580002
  65.8069992  40.3559990  74.4100037  66.4359970  38.9630013  75.9270020
  67.5130005  39.2360001  75.9489975  66.3560028  37.8730011  76.1269989
  65.7119980  39.7480011  77.0339966  64.6159973  39.5880013  76.9459991
  65.8990021  40.8289986  76.8619995  66.1699982  39.4020004  78.4649963
  65.7369995  40.1510010  79.1630020  67.2750015  39.5050011  78.5090027
  65.7829971  37.9959984  78.9680023  66.2740021  37.8370018  79.9530029
  66.1819992  37.2290001  78.2699966  64.2689972  37.7849998  79.1480026
  63.7649994  37.9739990  78.1770020  63.8829994  38.5260010  79.8809967
  63.8849983  36.3709984  79.6179962  64.3560028  35.6180000  78.9509964
  62.7830009  36.2570000  79.5250015  64.2710037  36.0639992  81.0729980
  63.8100014  36.8230019  81.7409973  65.3740005  36.1389999  81.1859970
  63.8250008  34.6660004  81.5189972  64.3109970  33.9199982  80.8550034
  62.7270012  34.5760002  81.3759995  64.1750031  34.3390007  82.9779968
  63.5750008  34.9949989  83.6449966  65.2460022  34.5760002  83.1510010
  63.9300003  32.8730011  83.3659973  64.2610016  32.7309990  84.4169998
  64.5709991  32.2290001  82.7269974  62.4739990  32.4220009  83.2360001
  62.1399994  32.5139999  82.1800003  61.8149986  33.0559998  83.8669968
  62.3619995  31.3619995  83.5500031 132.3780060  95.3420029  65.7890015
 131.3500061  96.1930008  66.5139999 131.4700012  97.2139969  66.1819992
 131.5870056  96.1740036  67.5680008 131.9409943  95.1279984  64.3769989
 131.8190002  96.0670013  63.8580017 132.6430054  94.5130005  63.8330002
 130.9909973  94.6139984  64.3949966 133.7189941  96.0009995  65.8249969
 133.7019958  96.9449997  65.3010025 134.0299988  96.1940002  66.8410034
 134.4700012  95.3799973  65.3600006 132.4450073  94.0049973  66.4489975
 132.8170013  94.0869980  67.4599991 133.0570068  93.3140030  65.8889999
 131.4369965  93.6200027  66.4940033 129.8450012  95.8140030  66.3519974
 129.5709991  95.9830017  65.2880020 129.2460022  96.5370026  66.9449997
 128.6840057  93.5000000  65.8779984 129.3959961  93.2639999  64.5820007
 127.2910004  94.0380020  65.7519989 129.5520020  94.4879990  66.8119965
 128.6020050  92.1019974  66.6770020 129.5939941  91.6949997  67.6279984
 130.5260010  92.2969971  67.5780029 129.8860016  90.6460037  67.4039993
 129.0839996  91.6930008  69.1090012 128.1430054  91.1019974  69.1350021
 128.8970032  93.0360031  69.6039963 127.6699982  93.5240021  69.4380035
 126.6880035  92.8880005  69.0690002 127.6350021  95.0019989  69.8489990
 127.2139969  95.5709991  68.9919968 128.6660004  95.3659973  70.0429993
 130.0529938  90.9199982  70.0589981 130.0269928  89.8560028  69.7419968
 129.5980072  90.9850006  71.0709991 131.4160004  91.4010010  70.0120010
 132.0970001  91.2819977  71.1660004 131.6499939  90.8320007  72.2060013
 133.5690002  91.6650009  70.9300003 133.7380066  91.9130020  69.8600006
 134.1620026  90.7580032  71.1760025 126.7470016  95.1699982  71.0940018
 125.7490005  94.7249985  70.8960037 126.6060028  96.2549973  71.2900009
 127.3669968  94.5189972  72.3399963 128.3339996  95.0199966  72.5609970
 127.5810013  93.4520035  72.1129990 126.4940033  94.5749969  73.6070023
 126.9690018  93.9010010  74.3519974 125.4789963  94.1780014  73.3899994
 126.3960037  95.9840012  74.2180023 125.8209991  96.6380005  73.5289993
 127.4250031  96.3980026  74.2929993 125.7620010  96.0459976  75.6240005
 124.7129974  95.6829987  75.5729980 125.7419968  97.1149979  75.9250031
 126.5410004  95.2409973  76.6890030 127.6139984  95.5049973  76.5729980
 126.4560013  94.1620026  76.4380035 126.0630035  95.4479980  78.1100006
 124.9909973  95.2539978  78.2620010 126.8180008  95.7910004  79.1750031
 126.3320007  95.8990021  80.1549988 128.3049927  96.0569992  79.1679993
 128.4519958  97.1520004  79.0550003 128.8059998  95.5699997  78.3040009
 129.0959930  95.6890030  80.4440002 128.6670074  96.2129974  81.3239975
 130.1280060  96.0719986  80.2969971 129.1750031  94.1790009  80.7050018
 129.4250031  93.6620026  79.7539978 128.1719971  93.8300018  81.0309982
 130.2059937  93.7649994  81.7699966 129.9349976  92.7539978  82.1429977
 130.1349945  94.4720001  82.6240005 131.6690063  93.7239990  81.2860031
 132.3280029  93.7099991  82.1809998 131.8890076  94.6610031  80.7310028
 132.0500031  92.5179977  80.4010010 133.0749969  92.6809998  80.0070038
 131.3560028  92.5070038  79.5339966 132.0119934  91.1330032  81.0849991
 132.2519989  90.3720016  80.3119965 130.9759979  90.9309998  81.4300003
 132.9790039  90.9499969  82.2610016 132.7429962  91.6770020  83.0670013
 134.0310059  91.0999985  81.9349976 132.8860016  89.9219971  82.6709976
 134.0489960  92.8089981  71.8369980 135.1560059  92.7440033  71.8929977
 133.6660004  92.6669998  72.8710022 133.7120056  94.2200012  71.3219986
 134.0950012  94.3339996  70.2850037 134.2680054  94.9479980  71.9509964
 132.2200012  94.6090012  71.3499985 131.6959991  94.0599976  70.5380020
 132.1300049  95.6940002  71.1289978 131.4859924  94.3059998  72.6669998
 131.4909973  93.2060013  72.8170013 130.4219971  94.6139984  72.5830002
 132.0890045  94.9319992  73.9319992 131.6679993  95.9530029  74.0559998
 133.1880035  95.0439987  73.8109970 131.8719940  94.0759964  75.1920013
 132.3390045  94.5849991  76.0619965 132.4109955  93.1169968  75.0350037
 130.4100037  93.7409973  75.5350037 129.8919983  93.3410034  74.6370010
 129.8840027  94.6689987  75.8470001 130.3159943  92.6959991  76.6579971
 130.8869934  93.0780029  77.5309982 130.8020020  91.7549973  76.3199997
 128.8910065  92.3850021  77.1309967 128.2689972  92.0210037  76.2860031
 128.4470062  93.3359985  77.4960022 128.8529968  91.3679962  78.2850037
 129.5970001  91.6979980  79.0410004 129.1589966  90.3590012  77.9359970
 127.5080032  91.3059998  79.0159988 126.8290024  90.5780029  78.5240021
 127.0459976  92.3130035  78.9339981 127.5970001  91.0000000  80.5169983
 126.6009979  91.2099991  80.9619980 128.3300018  91.6949997  80.9779968
 128.0000000  89.5759964  80.9089966 129.0149994  89.3560028  80.5130005
 127.2890015  88.8560028  80.4509964 127.9960022  89.3960037  82.4250031
 128.1929932  88.3379974  82.6989975 127.0110016  89.6930008  82.8450012
 128.7760010  90.0380020  82.8889999  43.0629997 118.5019989  62.6119995
  43.4029999 118.9449997  61.6520004  42.1500015 117.9150009  62.3720016
  41.5439987 119.4680023  64.5599976  41.2019997 118.0429993  64.8460007
  40.4329987 120.3000031  64.0080032  42.7849998 119.5569992  63.5460014
  42.0600014 120.1520004  65.9130020  43.0719986 121.1679993  65.8610001
  44.0180016 120.7659988  65.4390030  42.7420006 122.0139999  65.2200012
  44.1790009 117.5149994  63.0919991  44.0079994 117.2809982  64.1650009
  44.0519981 116.2949982  62.3510017  44.2140007 116.5189972  61.4309998
  45.6430016 118.0410004  62.9210014  45.7509995 118.3880005  61.8709984
  46.3250008 117.1709976  63.0320015  47.0289993 118.9000015  65.0139999
  48.3660011 118.5889969  64.4229965  46.9809990 120.1009979  65.9020004
  45.9879990 119.1179962  63.8079987  46.4809990 117.5979996  65.7799988
  46.7919998 117.3919983  67.1679993  46.4160004 118.2300034  67.7929993
  47.8899994 117.3119965  67.3160019  46.1469994 116.0739975  67.7099991
  46.4990005 115.2720032  67.0270004  44.7060013 116.1800003  67.6579971
  44.0600014 115.0270004  67.7330017  44.5760002 113.9179993  67.6940002
  42.5530014 115.2910004  67.8420029  42.0999985 115.0429993  66.8590012
  42.3769989 116.3679962  68.0530014  46.6479988 115.6849976  69.1480026
  47.7579994 115.7190018  69.1460037  46.3429985 114.6299973  69.3140030
  46.1250000 116.5609970  70.1750031  46.1150017 116.0319977  71.4089966
  46.5849991 114.9420013  71.7040024  45.3750000 116.9710007  72.3679962
  44.6010017 116.3820038  72.9039993  44.8540001 117.7460022  71.7659988
  43.4230003 121.7740021  67.2649994  44.0690002 122.6510010  67.0429993
  44.1809998 120.8209991  68.0410004  44.7060013 121.2850037  69.1650009
  44.7659988 122.4639969  69.4909973  45.1619987 120.1090012  70.0319977
  45.2379990 119.1949997  69.4049988  44.3790016 119.9400024  70.8020020
  42.1669998 122.3180008  68.0319977  42.5099983 123.1389999  68.6969986
  41.4720001 122.7559967  67.2839966  41.5149994 121.2779999  68.7959976
  40.5670013 121.6979980  69.6200027  40.1640015 122.8489990  69.7109985
  40.0649986 120.5240021  70.4589996  39.6090012 119.7770004  69.7740021
  39.2750015 120.9089966  71.1380005  41.9249992 114.4280014  68.9520035
  42.1220016 113.3539963  68.7500000  40.8230019 114.5719986  68.9410019
  42.4560013 114.7900009  70.3460007  42.2050018 115.8460007  70.5810013
  43.5629997 114.6969986  70.3479996  41.9020004 113.8720016  71.4430008
  42.0940018 112.8170013  71.1500015  40.8019981 114.0049973  71.5260010
  42.5589981 114.1230011  72.8040009  42.2989998 115.1419983  73.1640015
  43.6619987 114.0849991  72.6760025  42.1629982 113.0859985  73.8619995
  42.3989983 112.0729980  73.4720001  41.0680008 113.1299973  74.0469971
  42.9179993 113.2839966  75.1819992  42.6220016 114.2559967  75.6309967
  44.0019989 113.3399963  74.9469986  42.6800003 112.1480026  76.1920013
  43.0410004 111.1969986  75.7470016  41.5859985 112.0449982  76.3519974
  43.3419991 112.3470001  77.5719986  43.0960007 111.4619980  78.1969986
  42.8580017 113.2210007  78.0579987  44.8310013 112.5820007  77.5049973
  45.1489983 113.2779999  76.7149963  45.7789993 112.0800018  78.3150024
  46.8209991 112.3939972  78.1520004  45.5940018 111.1529999  79.4889984
  46.4179993 110.4079971  79.4800034  44.6479988 110.5739975  79.4300003
  45.6669998 111.8779984  80.8460007  46.4710007 112.6439972  80.8270035
  45.9480019 111.1200027  81.6080017  44.3680000 112.5439987  81.3280029
  43.9850006 113.2580032  80.5670013  44.6269989 113.1279984  82.2369995
  43.2809982 111.5250015  81.7040024  43.7560005 110.7389984  82.3300018
  42.9099998 111.0400009  80.7760010  42.1010017 112.1210022  82.4840012
  41.2960014 111.3560028  82.5230026  41.7099991 112.9940033  81.9189987
  42.4389992 112.5469971  83.9169998  42.8320007 111.6849976  84.4970016
  41.5359993 112.9440002  84.4290009  43.2159996 113.3399963  83.9100037
  46.3279991 117.6650009  73.3639984  45.8349991 118.5889969  73.7360001
  47.2560005 117.9800034  72.8410034  46.7080002 116.8310013  74.5970001
  47.4770012 117.4039993  75.1589966  47.1720009 115.8730011  74.2789993
  45.5330009 116.5490036  75.5459976  44.8050003 115.8840027  75.0339966
  45.0130005 117.5029984  75.7799988  45.9420013 115.8830032  76.8690033
  46.5449982 114.9779968  76.6449966  45.0180016 115.5510025  77.3880005
  46.7229996 116.7939987  77.8339996  46.0970001 117.6880035  78.0429993
  47.6590004 117.1439972  77.3489990  47.0719986 116.1169968  79.1709976
  46.1479988 115.6419983  79.5650024  47.3860016 116.8880005  79.9059982
  48.1739998 115.0459976  79.0709991  48.2840004 114.7180023  78.0149994
  47.8390007 114.1620026  79.6549988  49.5519981 115.4660034  79.6179962
  50.2400017 114.5999985  79.5179977  49.4560013 115.6900024  80.7020035
  50.1889992 116.6740036  78.9120026  49.5519981 117.5670013  79.0889969
  50.2099991 116.4820023  77.8180008  51.6230011 116.9619980  79.3880005
  52.2579994 116.0849991  79.1389999  51.6220016 117.0619965  80.4950027
  52.2690010 118.2129974  78.7649994  52.2430000 118.1100006  77.6600037
  53.3349991 118.2429962  79.0759964  51.6129990 119.5500031  79.1559982
  50.5480003 119.5370026  78.8399963  52.1110001 120.3690033  78.5940018
  51.6819992 119.8769989  80.6559982  52.7470016 119.8990021  80.9720001
  51.1839981 119.0640030  81.2269974  51.0209999 121.2020035  81.0240021
  51.0660019 121.3740005  82.1210022  49.9539986 121.2050018  80.7149963
  51.5309982 122.0479965  80.5149994  46.5149994 120.3710022  70.7220001
  46.7210007 119.4830017  71.3570023  46.4640007 121.2539978  71.3949966
  47.6889992 120.5189972  69.7409973  47.8540001 121.5979996  69.5299988
  47.4199982 120.0279999  68.7819977  48.9949989 119.8730011  70.2379990
  49.8019981 120.0680008  69.5000000  48.8390007 118.7740021  70.2819977
  49.4550018 120.3440018  71.6269989  48.6339989 120.1770020  72.3560028
  49.6769981 121.4319992  71.6039963  50.6969986 119.5889969  72.1259995
  51.5740013 119.8919983  71.5139999  50.5260010 118.5009995  71.9759979
  51.0079994 119.8059998  73.6149979  50.9720001 120.8949966  73.8320007
  52.0410004 119.4580002  73.8280029  50.0499992 119.0329971  74.5449982
  50.5709991 118.1190033  74.9029999  49.1669998 118.6910019  73.9660034
  49.5559998 119.8280029  75.7689972  50.4399986 120.2050018  76.3259964
  49.0260010 119.1200027  76.4420013  48.6640015 120.9830017  75.3750000
  49.1119995 121.6849976  74.6569977  47.4109993 121.2160034  75.8030014
  46.8820000 122.1090012  75.4380035  46.6399994 120.3830032  76.7959976
  47.2389984 120.1949997  77.7119980  46.4090004 119.3899994  76.3550034
  45.3019981 121.0350037  77.2050018  44.7260017 120.3109970  77.8199997
  44.7039986 121.2289963  76.2890015  45.4339981 122.3460007  78.0059967
  44.4500008 122.8610001  77.9729996  46.1739998 123.0230026  77.5289993
  45.8019981 122.1330032  79.4840012  46.8100014 121.6689987  79.5550003
  45.0760002 121.4179993  79.9250031  45.7799988 123.4329987  80.3030014
  44.8240013 123.9599991  80.0930023  46.6069984 124.0889969  79.9570007
  45.9010010 123.2409973  81.8140030  45.7789993 124.2119980  82.3399963
  46.9000015 122.8330002  82.0800018  45.1220016 122.5400009  82.1819992
  41.1879997 119.8590012  71.2900009  41.6809998 120.6230011  71.9290009
  41.9589996 119.4309998  70.6139984  40.6430016 118.7389984  72.1849976
  40.1500015 117.9800034  71.5419998  39.8629990 119.1600037  72.8550034
  41.7109985 118.0289993  73.0370026  42.4440002 117.5429993  72.3590012
  41.2109985 117.2190018  73.6100006  42.4819984 118.9209976  74.0309982
  43.1660004 119.5820007  73.4580002  43.1220016 118.2630005  74.6579971
  41.6230011 119.8069992  74.9570007  41.1539993 120.5869980  74.3190002
  42.2849998 120.3310013  75.6790009  40.4900017 119.1039963  75.7330017
  39.9339981 118.4160004  75.0619965  39.7750015 119.8929977  76.0510025
  40.9090004 118.3509979  77.0090027  39.9760017 118.0139999  77.5080032
  41.4239998 119.0439987  77.7080002  41.8019981 117.1240005  76.7750015
  42.8639984 117.4459991  76.8290024  41.6300011 116.7340012  75.7500000
  41.5730019 115.9589996  77.7539978  42.3829994 115.2190018  77.5839996
  40.6090012 115.4670029  77.5059967  41.5620003 116.3219986  79.2480011
  41.3689995 115.3929977  79.8270035  40.7290001 117.0270004  79.4580002
  42.8750000 116.9400024  79.7419968  43.0579987 117.8769989  79.1729965
  43.7179985 116.2500000  79.5230026  42.8619995 117.2799988  81.2399979
  41.9510002 117.8740005  81.4720001  43.7430000 117.9240036  81.4440002
  42.9510002 116.0680008  82.1780014  43.8810005 115.5090027  81.9380035
  42.0979996 115.3840027  81.9830017  42.9720001 116.4380035  83.6630020
  43.8400002 117.0940018  83.8840027  43.0639992 115.5250015  84.2900009
  42.0429993 116.9759979  83.9489975 123.3119965 120.1859970  65.5749969
 124.6760025 119.5500031  65.8199997 124.5869980 118.4739990  65.8259964
 125.0400009 119.8519974  66.7910004 123.3840027 121.6669998  65.7990036
 124.1740036 122.0640030  65.1790009 122.4400024 122.1240005  65.5429993
 123.6340027 121.8799973  66.8280029 122.8799973 119.9800034  64.1579971
 123.5709991 120.4779968  63.4949989 122.8639984 118.9349976  63.8829994
 121.9069977 120.4169998  63.9910011 122.2559967 119.6490021  66.4869995
 121.3130035 120.1389999  66.2939987 122.5070038 119.8519974  67.5169983
 122.1129990 118.5839996  66.3769989 125.8290024 119.9100037  64.8369980
 125.5130005 119.6409988  63.8059998 126.6969986 119.2559967  65.0680008
 127.0189972 121.8949966  66.1110001 126.4270020 123.2289963  66.4339981
 128.4730072 121.9240036  65.7509995 126.2030029 121.2870026  64.8730011
 126.7509995 120.8929977  67.3470001 127.6579971 119.8199997  67.6660004
 128.3990021 119.6299973  66.8600006 127.0849991 118.8759995  67.7870026
 128.4989929 120.0439987  68.9840012 129.5030060 119.6050034  68.7969971
 127.9209976 119.3860016  70.1299973 128.0659943 118.0630035  70.1709976
 128.6560059 117.3880005  69.3430023 127.5699997 117.5709991  71.5329971
 127.3470001 118.4690018  72.1480026 128.4129944 117.0169983  71.9990005
 128.7799988 121.5469971  69.3529968 129.2500000 122.0169983  68.4639969
 129.5110016 121.5309982  70.1890030 127.5759964 122.2580032  69.7429962
 127.7679977 123.5230026  70.0739975 128.8679962 124.0619965  70.1610031
 126.4089966 124.1900024  70.3209991 125.7500000 123.4729996  70.8550034
 125.9749985 124.3850021  69.3170013 126.3199997 116.6859970  71.4349976
 126.5650024 115.7310028  70.9229965 125.5370026 117.2070007  70.8430023
 125.6760025 116.3740005  72.7969971 125.2730026 117.2880020  73.2829971
 126.4459991 115.9469986  73.4749985 124.5559998 115.3259964  72.6969986
 124.4700012 114.7659988  73.6520004 124.8560028 114.5940018  71.9160004
 123.1419983 115.8119965  72.2979965 122.5090027 114.9039993  72.2089996
 123.1890030 116.3059998  71.3040009 122.3629990 116.7259979  73.2819977
 121.2919998 116.6920013  72.9879990 122.7070007 117.7730026  73.1439972
 122.5210037 116.3529968  74.7979965 123.2939987 117.0270004  75.2259979
 122.9100037 115.3160019  74.8830032 121.2509995 116.3690033  75.6320038
 120.5810013 115.5220032  75.4209976 120.8909988 117.2160034  76.6279984
 119.9240036 117.0500031  77.1240005 121.6679993 118.4079971  77.1380005
 122.7129974 118.3470001  76.7659988 121.7160034 118.3919983  78.2480011
 121.1660004 119.8020020  76.6790009 120.7409973 119.8050003  75.6520004
 122.0820007 120.4309998  76.6460037 120.1969986 120.5159988  77.6419983
 120.4280014 120.1740036  78.6729965 119.1490021 120.2289963  77.4089966
 120.3789978 122.0419998  77.6289978 120.0139999 122.4629974  76.6679993
 121.4769974 122.1999969  77.6809998 119.7770004 122.7779999  78.8330002
 119.7760010 122.0660019  79.6849976 118.7149963 123.0429993  78.6429977
 120.5729980 124.0279999  79.2610016 119.9589996 124.9410019  79.1070023
 121.4710007 124.1090012  78.6110001 121.0479965 123.9749985  80.7249985
 121.4079971 122.9440002  80.9250031 120.1780014 124.1660004  81.3880005
 122.1740036 124.9410019  81.0759964 121.8410034 125.9940033  80.9570007
 123.0510025 124.7839966  80.4130020 122.5029984 124.7990036  82.1279984
 126.5019989 125.5169983  71.1070023 125.6660004 126.1650009  70.7679977
 127.4440002 126.0630035  70.8870010 126.3219986 125.3190002  72.6190033
 127.0869980 124.6200027  73.0189972 125.3259964 124.8539963  72.7819977
 126.3659973 126.6529999  73.3799973 125.6890030 127.3720016  72.8690033
 127.3939972 127.0680008  73.3190002 125.9410019 126.5739975  74.8590012
 124.8809967 126.2490005  74.9319992 126.0059967 127.5899963  75.3040009
 126.8000031 125.5989990  75.6780014 127.8740005 125.7480011  75.4390030
 126.5299988 124.5719986  75.3509979 126.5859985 125.6679993  77.1979980
 125.5049973 125.5339966  77.4169998 126.8339996 126.6669998  77.6179962
 127.3720016 124.5729980  77.9309998 128.4609985 124.6859970  77.7460022
 127.0569992 123.6009979  77.4929962 127.0970001 124.5380020  79.4390030
 125.9940033 124.5690002  79.5749969 127.5179977 125.4400024  79.9300003
 127.6019974 123.2570038  80.1139984 128.7109985 123.2139969  80.0619965
 127.1940002 122.3809967  79.5650024 127.1480026 123.1600037  81.5770035
 126.0400009 123.2310028  81.6129990 127.5690002 124.0149994  82.1470032
 127.5930023 121.8499985  82.2350006 128.7030029 121.8180008  82.2429962
 127.2310028 120.9980011  81.6210022 127.0820007 121.6419983  83.6650009
 125.9710007 121.6210022  83.6490021 127.3870010 122.4940033  84.3089981
 127.5930023 120.3239975  84.2610016 128.6999969 120.3710022  84.3440018
 127.3529968 119.5130005  83.5400009 126.9830017 119.9690018  85.6169968
 127.1660004 120.7779999  86.3560028 127.4179993 119.0189972  85.9960022
 125.8860016 119.8209991  85.5159988 121.9800034  47.6279984  64.9319992
 122.1669998  46.1879997  65.3700027 123.1760025  46.0779991  65.7369995
 122.0849991  45.5569992  64.4970016 122.0350037  48.5400009  66.1100006
 123.0029984  48.4949989  66.5879974 121.8320007  49.5579987  65.8140030
 121.2730026  48.2389984  66.8130035 123.0390015  48.0079994  63.9500008
 123.0149994  47.3510017  63.0929985 122.8809967  49.0149994  63.5919991
 124.0210037  47.9519997  64.3949966 120.6480026  47.7929993  64.2829971
 119.8850021  47.5079994  64.9919968 120.5599976  47.1479988  63.4210014
 120.4820023  48.8160019  63.9799995 121.1930008  45.6269989  66.4410019
 121.2249985  46.2910004  67.3310013 121.5889969  44.6419983  66.7659988
 118.5899963  45.9360008  66.7320023 118.5879974  45.3019981  68.0849991
 117.3789978  45.6879997  65.8939972 119.8740005  45.4339981  65.9199982
 118.8259964  47.5180016  66.8290024 118.2770004  48.3030014  67.8949966
 117.7180023  47.7000008  68.6429977 117.5640030  49.0410004  67.4700012
 119.3789978  49.0960007  68.6620026 119.8619995  49.7589989  67.9130020
 120.3420029  48.1640015  69.1959991 121.5169983  48.6710014  69.5289993
 121.8450012  49.8440018  69.4169998 122.4380035  47.5279999  69.9769974
 123.1669998  47.3359985  69.1610031 121.8229980  46.6129990  70.1159973
 118.7559967  50.0089989  69.7689972 118.0299988  50.6790009  69.2610016
 119.5339966  50.6720009  70.2040024 118.0449982  49.2360001  70.7620010
 118.7679977  48.8559990  71.8150024 119.8809967  49.2690010  72.1029968
 117.9789963  47.8079987  72.5950012 117.8700027  46.9119987  71.9459991
 116.9660034  48.2150002  72.8020020 123.1809998  47.8349991  71.2929993
 122.4570007  48.2319984  72.0360031 123.9540024  48.6139984  71.1179962
 123.8399963  46.5769997  71.8750000 124.5540009  46.1669998  71.1289978
 123.0540009  45.8110008  72.0419998 124.5889969  46.8019981  73.1999969
 125.4509964  47.4819984  73.0309982 124.9929962  45.8240013  73.5380020
 123.7129974  47.3810005  74.3209991 122.7549973  46.8199997  74.3679962
 123.4710007  48.4379997  74.0800018 124.3880005  47.3009987  75.6979980
 125.4000015  47.7579994  75.6500015 124.5279999  46.2280006  75.9499969
 123.5749969  47.9570007  76.8290024 124.0660019  47.7060013  77.7929993
 122.5699997  47.4840012  76.8479996 123.4800034  49.4580002  76.6979980
 124.4260025  49.9599991  76.4449997 122.3759995  50.2120018  76.8489990
 122.4649963  51.3040009  76.7409973 120.9990005  49.7130013  77.2160034
 120.6930008  48.9010010  76.5230026 120.2549973  50.5299988  77.1009979
 120.8949966  49.1559982  78.6520004 121.5479965  48.2610016  78.7389984
 119.8519974  48.8120003  78.8160019 121.2689972  50.1459999  79.7699966
 120.6470032  51.0600014  79.6589966 122.3339996  50.4459991  79.6729965
 121.0500031  49.5820007  81.1839981 119.9919968  49.2540016  81.2669983
 121.1890030  50.3940010  81.9290009 121.9729996  48.4160004  81.5830002
 121.9619980  47.6419983  80.7860031 121.5550003  47.9430008  82.4980011
 123.4120026  48.8370018  81.9029999 123.3840027  49.6720009  82.6360016
 123.8740005  49.2249985  80.9710007 124.2910004  47.7099991  82.4690018
 123.8450012  47.3629990  83.4260025 125.2870026  48.1389999  82.7089996
 124.4729996  46.5120010  81.5319977 124.9359970  46.8380013  80.5759964
 123.4909973  46.0460014  81.3030014 125.1220016  45.7420006  82.0000000
 118.6669998  47.4140015  73.9179993 118.8109970  48.3160019  74.5510025
 119.6719971  46.9910011  73.7009964 117.8450012  46.3880005  74.7089996
 117.6780014  45.4860001  74.0820007 116.8499985  46.8310013  74.9300003
 118.4960022  45.9609985  76.0329971 117.7689972  45.3320007  76.5899963
 118.6989975  46.8610001  76.6529999 119.7949982  45.1549988  75.8610001
 120.5979996  45.8100014  75.4599991 119.6050034  44.3479996  75.1210022
 120.2720032  44.5000000  77.1669998 121.0500031  43.7379990  76.9489975
 119.4049988  43.9659996  77.6110001 120.8310013  45.4920006  78.1979980
 120.3499985  46.4850006  78.0680008 121.9189987  45.6250000  78.0139999
 120.5960007  45.0419998  79.6460037 121.2870026  45.5900002  80.3219986
 120.8349991  43.9599991  79.7200012 119.1500015  45.2700005  80.1149979
 118.7570038  44.3489990  80.5950012 118.5210037  45.4679985  79.2210007
 118.9950027  46.4440002  81.0930023 117.9410019  46.7939987  81.0380020
 119.6399994  47.2820015  80.7539978 119.2929993  46.0670013  82.5540009
 120.3880005  45.9949989  82.7220001 118.8669968  45.0509987  82.7009964
 118.6320038  46.9700012  83.6119995 118.2239990  46.3019981  84.4000015
 117.7689972  47.5079994  83.1620026 119.5640030  47.9710007  84.3079987
 119.8629990  48.7560005  83.5810013 120.4840012  47.4389992  84.6340027
 118.9250031  48.6380005  85.5339966 118.6230011  47.8419991  86.2480011
 118.0000000  49.1619987  85.2099991 119.8410034  49.6300011  86.2529984
 120.1210022  50.4640007  85.5739975 120.7730026  49.1279984  86.5899963
 119.3300018  50.0579987  87.1419983 136.6909943  92.8929977  64.3960037
 136.3130035  92.8450012  65.8600006 135.3650055  92.3349991  65.9469986
 136.1750031  93.8570023  66.2119980 136.5480042  91.5220032  63.8230019
 135.5140076  91.2109985  63.8209991 136.9369965  91.4749985  62.8160019
 137.0980072  90.8440018  64.4570007 135.8350067  93.8399963  63.6240005
 136.1020050  93.8079987  62.5779991 134.7910004  93.5759964  63.7070007
 135.9830017  94.8539963  63.9640007 138.1190033  93.3050003  64.2620010
 138.2689972  94.2949982  64.6650009 138.4309998  93.2890015  63.2280006
 138.7250061  92.6100006  64.8249969 137.3170013  92.1500015  66.8229980
 136.8500061  92.1269989  67.8310013 138.2100067  92.8069992  66.8880005
 138.9949951  90.1679993  67.0090027 140.1840057  90.7799988  66.3379974
 138.8999939  88.6800003  66.9380035 137.6589966  90.8180008  66.4130020
 138.9559937  90.6250000  68.5419998 140.1020050  90.4459991  69.3779984
 140.9920044  90.9520035  68.9479980 140.3489990  89.3679962  69.4749985
 139.8639984  91.0589981  70.8020020 140.7530060  90.8270035  71.4280014
 138.6649933  90.5439987  71.4160004 138.6580048  89.2369995  71.6250000
 139.6430054  88.5100021  71.6579971 137.2200012  88.7570038  71.8310013
 137.1750031  87.6859970  71.5370026 136.5509949  89.3330002  71.1569977
 139.7619934  92.6129990  70.6989975 138.7790070  92.8820038  70.2559967
 140.5279999  92.9359970  69.9629974 140.0420074  93.2910004  71.9459991
 138.9880066  93.7129974  72.6480026 137.8179932  93.4749985  72.3990021
 139.4660034  94.6679993  73.7490005 138.9069977  95.6169968  73.6029968
 140.5480042  94.8840027  73.6220016 136.7769928  88.9229965  73.2969971
 136.8739929  89.9919968  73.5839996 137.4450073  88.3270035  73.9540024
 135.3260040  88.4810028  73.5309982 135.1849976  87.4810028  73.0670013
 134.6349945  89.1849976  73.0210037 134.9259949  88.3619995  75.0130005
 135.6119995  87.6689987  75.5449982 133.9179993  87.8949966  75.0400009
 134.8130035  89.6869965  75.7900009 134.1060028  89.4889984  76.6230011
 134.3580017  90.4720001  75.1500015 136.1340027  90.1880035  76.4049988
 136.7469940  90.6589966  75.6070023 136.7050018  89.3170013  76.7919998
 135.9539948  91.2119980  77.5469971 135.3480072  92.0640030  77.1699982
 136.9559937  91.6190033  77.8000031 135.3040009  90.6100006  78.7689972
 134.2039948  90.6429977  78.7740021 135.9219971  89.9970016  79.7949982
 135.2969971  89.5950012  80.6060028 137.4069977  89.7860031  79.9860001
 137.9929962  90.3040009  79.1979980 137.6470032  88.7050018  79.9059982
 137.9210052  90.3000031  81.3499985 137.6529999  91.3740005  81.4410019
 139.0299988  90.2419968  81.3639984 137.3699951  89.5650024  82.5859985
 136.2610016  89.5419998  82.5270004 137.6300049  90.1480026  83.4960022
 137.8710022  88.1210022  82.7679977 137.6900024  87.5490036  81.8330002
 137.2500000  87.6500015  83.5599976 139.3470001  87.9690018  83.1839981
 139.9960022  88.3750000  82.3799973 139.5639954  86.8830032  83.2710037
 139.7189941  88.6449966  84.5199966 139.6139984  89.7440033  84.3949966
 140.7870026  88.4270020  84.7360001 138.8639984  88.2129974  85.7279968
 137.8009949  88.4420013  85.5000000 139.1499939  88.8349991  86.6029968
 138.9600067  86.7360001  86.1100006 138.6479950  86.0930023  85.2600021
 138.2960052  86.5149994  86.9729996 140.0030060  86.4729996  86.3899994
 139.1820068  94.1389999  75.1709976 138.1510010  93.7300034  75.2379990
 139.2380066  95.0059967  75.8639984 140.1999969  93.0859985  75.6370010
 141.2239990  93.5139999  75.5869980 140.1629944  92.2249985  74.9349976
 139.9450073  92.5599976  77.0630035 140.6510010  91.7300034  77.2779999
 138.9170074  92.1419983  77.0960007 140.0760040  93.6169968  78.1729965
 139.4259949  94.4820023  77.9219971 141.1230011  93.9820023  78.2320023
 139.6250000  93.1029968  79.5490036 140.2830048  92.2710037  79.8789978
 138.5959930  92.6969986  79.4430008 139.5989990  94.1969986  80.6289978
 139.0440063  95.0739975  80.2320023 140.6380005  94.5199966  80.8509979
 138.9120026  93.7440033  81.9260025 139.3959961  92.8020020  82.2590027
 137.8459930  93.5189972  81.7060013 138.9689941  94.7710037  83.0699997
 138.5130005  95.7259979  82.7320023 140.0379944  94.9710007  83.2979965
 138.2700043  94.3119965  84.3669968 137.1690063  94.2979965  84.2200012
 138.4949951  95.0579987  85.1589966 138.7140045  92.9179993  84.8339996
 139.7890015  92.8239975  84.5709991 138.1790009  92.1389999  84.2500000
 138.6040039  92.6460037  86.3440018 139.0200043  93.5090027  86.9059982
 139.2500000  91.7679977  86.5630035 137.1970062  92.3150024  86.8690033
 136.5590057  93.2229996  86.8219986 137.2899933  92.0270004  87.9380035
 136.5039978  91.1780014  86.1050034 137.2839966  90.4609985  85.7720032
 136.0440063  91.6039963  85.1880035 135.4490051  90.4160004  86.9059982
 134.9790039  89.6330032  86.2740021 134.6470032  91.1009979  87.2529984
 135.9040070  89.9300003  87.7959976 124.2099991  66.2310028  64.6129990
 125.6159973  66.5090027  64.1179962 125.5630035  67.3150024  63.4020004
 125.9619980  65.6380005  63.5820007 123.6600037  67.4789963  65.2149963
 124.4000015  67.8870010  65.8880005 123.4970016  68.2200012  64.4459991
 122.7310028  67.3099976  65.7389984 123.3610001  65.8460007  63.4449997
 123.7089996  64.9229965  63.0050011 122.3270035  65.7259979  63.7360001
 123.3970032  66.6139984  62.6860008 124.2320023  65.1179962  65.6080017
 124.6050034  64.2129974  65.1510010 123.2490005  64.9169998  66.0090027
 124.8899994  65.3710022  66.4260025 126.6869965  66.8919983  65.1729965
 127.6520004  66.9359970  64.6230011 126.7679977  66.0729980  65.9189987
 127.5790024  69.0410004  66.4120026 127.7389984  70.2399979  65.5329971
 128.8110046  68.2170029  66.6100006 126.3880005  68.1289978  65.8310013
 127.0749969  69.5279999  67.8570023 125.7340012  69.3730011  68.3349991
 124.9960022  69.2829971  67.5090027 125.4520035  70.2929993  68.8899994
 125.5390015  68.1500015  69.3040009 124.5130005  68.2170029  69.7259979
 126.5210037  68.1210022  70.3610001 126.3820038  69.0599976  71.2850037
 125.4459991  69.8430023  71.3769989 127.5739975  68.9909973  72.2480011
 128.3730011  69.6610031  71.8619995 127.9599991  67.9489975  72.2450027
 125.5960007  66.8119965  68.5139999 126.6279984  66.6740036  68.1250000
 124.9390030  66.9449997  67.6279984 125.1019974  65.6829987  69.2659988
 126.0199966  64.8219986  69.7070007 127.2300034  64.9400024  69.5950012
 125.3170013  63.5979996  70.2900009 126.0520020  62.7659988  70.3209991
 124.4899979  63.3110008  69.6050034 127.2009964  69.3809967  73.6949997
 126.2379990  68.9020004  73.9710007 127.0690002  70.4820023  73.7689972
 128.2590027  68.9020004  74.6969986 129.2440033  69.3529968  74.4489975
 128.3589935  67.8020020  74.5810013 127.9199982  69.2080002  76.1660004
 126.8590012  68.9489975  76.3710022 128.0449982  70.2979965  76.3389969
 128.8119965  68.4319992  77.1500015 128.7760010  68.9020004  78.1559982
 129.8589935  68.4970016  76.7860031 128.4019928  66.9560013  77.3020020
 127.8629990  66.6439972  76.3820038 127.6709976  66.8639984  78.1340027
 129.5959930  65.9929962  77.4789963 130.5140076  66.6110001  77.5790024
 129.7070007  65.4499969  76.5159988 129.5879974  64.9850006  78.6039963
 129.8320007  63.9630013  78.2799988 129.3520050  65.1709976  79.9179993
 129.4680023  64.2929993  80.5709991 128.9790039  66.4270020  80.6729965
 128.7070007  67.2549973  79.9840012 129.8450012  66.7799988  81.2730026
 127.7910004  66.2070007  81.6380005 126.9089966  65.8519974  81.0619965
 127.5179977  67.1849976  82.0869980 128.0780029  65.2279968  82.7910004
 128.8760071  65.6539993  83.4359970 128.4479980  64.2639999  82.3799973
 126.8410034  64.9189987  83.6439972 126.0650024  64.4879990  82.9759979
 126.4339981  65.8580017  84.0759964 127.0940018  63.9150009  84.7770004
 127.7529984  63.0979996  84.4140015 126.1149979  63.4679985  85.0530014
 127.6829987  64.5299988  86.0500031 127.0159988  65.3619995  86.3629990
 128.6799927  64.9639969  85.8259964 127.7900009  63.5460014  87.2220001
 126.8300018  62.9930000  87.3030014 127.9069977  64.1370010  88.1549988
 128.9450073  62.5499992  87.1190033 128.8339996  61.9280014  86.2050018
 128.9559937  61.8769989  88.0029984 129.9179993  63.0839996  87.0640030
 124.7720032  63.8590012  71.7040024 124.1829987  62.9679985  72.0120010
 124.0820007  64.7300034  71.6989975 125.8759995  64.0749969  72.7450027
 126.4039993  65.0299988  72.5360031 126.6169968  63.2509995  72.6660004
 125.3180008  64.1019974  74.1740036 124.7919998  63.1440010  74.3710022
 124.5699997  64.9209976  74.2460022 126.3970032  64.2949982  75.2470016
 126.9810028  65.2109985  75.0159988 127.0950012  63.4309998  75.2089996
 125.8379974  64.4100037  76.6750031 126.6979980  64.4049988  77.3779984
 125.2080002  63.5250015  76.9069977 125.0380020  65.6979980  76.9300003
 124.1080017  65.7009964  76.3219986 125.6600037  66.5569992  76.5989990
 124.6890030  65.9089966  78.4100037 125.6019974  65.7239990  79.0159988
 123.9189987  65.1689987  78.7180023 124.2020035  67.3339996  78.7109985
 123.3290024  67.5729980  78.0660019 125.0240021  68.0339966  78.4489975
 123.8170013  67.5350037  80.1849976 124.6610031  67.1989975  80.8249969
 122.9489975  66.8799973  80.4130020 123.4520035  68.9840012  80.5599976
 123.0589981  68.9860001  81.5989990 122.6350021  69.3359985  79.8929977
 124.6179962  69.9879990  80.5039978 124.2200012  71.0000000  80.7350006
 125.0360031  70.0230026  79.4749985 125.7480011  69.6800003  81.4990005
 126.2089996  68.7040024  81.2369995 125.3119965  69.5879974  82.5169983
 126.8359985  70.7580032  81.5230026 126.3570023  71.7080002  81.8399963
 127.2200012  70.8990021  80.4889984 128.0119934  70.4879990  82.4570007
 127.6780014  70.5080032  83.5159988 128.7879944  71.2750015  82.3359985
 128.4709930  69.4980011  82.2460022  31.8379993  82.7409973  63.2420006
  32.1150017  83.6429977  62.8059998  31.7819996  82.0149994  62.4990005
  30.8929996  82.8679962  63.6570015  32.8059998  82.3489990  64.3359985
  33.8250008  82.3020020  63.8959999  32.5180016  81.3379974  64.6949997
  32.7570000  83.3590012  65.4980011  33.1599998  84.3310013  65.1399994
  33.4410019  83.0130005  66.3030014  30.8250008  82.8310013  67.2450027
  31.0599995  81.3659973  67.1149979  29.4060001  83.2549973  67.4059982
  31.6749992  83.3909988  68.4720001  31.4179993  83.5630035  65.9580002
  32.3740005  84.6419983  68.4179993  32.0029984  85.3150024  67.6149979
  33.4480019  84.4459991  68.2170029  32.2820015  85.4540024  69.7490005
  32.9840012  86.3109970  69.6699982  32.5810013  84.6409988  70.9039993
  33.8720016  84.4430008  71.1159973  34.7869987  84.8580017  70.4189987
  34.0449982  83.6829987  72.4329987  35.0289993  83.1660004  72.4140015
  33.2480011  82.9110031  72.4940033  30.8740005  86.0859985  69.9410019
  30.1509991  85.2440033  69.9950027  30.6350002  86.6900024  69.0400009
  30.8780003  86.9339981  71.1149979  29.8549995  86.8040009  71.9440002
  28.8239994  86.1849976  71.7149963  30.1730003  87.5390015  73.2509995
  29.8379993  88.5930023  73.1460037  31.2719994  87.5260010  73.4140015
  33.9630013  84.6549988  73.6299973  33.1180000  85.3629990  73.4929962
  34.8989983  85.2539978  73.6620026  33.7669983  83.9550018  74.9830017
  33.9920006  84.6849976  75.7900009  34.4939995  83.1210022  75.0780029
  32.3349991  83.4420013  75.2099991  32.0519981  82.7310028  74.4039993
  31.6429996  84.3099976  75.1539993  32.1679993  82.7470016  76.5699997
  32.6110001  83.3850021  77.3639984  32.7490005  81.8000031  76.5449982
  30.7110004  82.4300003  76.9570007  30.7469997  81.7580032  77.8410034
  30.2189999  81.8740005  76.1299973  29.8810005  83.6770020  77.3310013
  29.7730007  84.3259964  76.4359970  30.4689999  84.2669983  78.0670013
  28.5179996  83.3259964  77.8840027  27.7070007  83.2890015  77.1409988
  28.2229996  83.0970001  79.1800003  27.1910000  82.8399963  79.4599991
  29.2059994  83.1019974  80.3239975  30.2250004  83.3730011  79.9759979
  29.2970009  82.0810013  80.7529984  28.8710003  84.0650024  81.4759979
  28.7380009  85.1009979  81.0989990  29.7700005  84.0699997  82.1289978
  27.6900005  83.6689987  82.3730011  27.7110004  82.5719986  82.5520020
  26.7380009  83.9100037  81.8539963  27.7339993  84.3570023  83.7470016
  26.7269993  84.3059998  84.2139969  27.9920006  85.4290009  83.6139984
  28.7500000  83.6910019  84.6890030  29.7339993  83.6240005  84.1780014
  28.4160004  82.6529999  84.9020004  28.9689999  84.4410019  86.0090027
  28.0060005  84.5370026  86.5540009  29.3290005  85.4670029  85.7789993
  30.0009995  83.7330017  86.8990021  30.9309998  83.5869980  86.3079987
  29.6100006  82.7259979  87.1579971  30.3490009  84.4850006  88.1839981
  30.8180008  85.4639969  87.9459991  31.0620003  83.8960037  88.8000031
  29.4340000  84.6760025  88.7839966  29.4629993  86.8629990  74.4400024
  29.7770004  85.8000031  74.5149994  28.3649998  86.8769989  74.2659988
  29.7320004  87.5439987  75.7860031  29.0259991  87.0869980  76.5110016
  29.4979992  88.6289978  75.7320023  31.1480007  87.3379974  76.3420029
  31.8439999  88.0540009  75.8570023  31.4920006  86.3089981  76.1050034
  31.1809998  87.5130005  77.8669968  30.6110001  86.6829987  78.3349991
  30.6700001  88.4629974  78.1340027  32.5810013  87.5360031  78.4919968
  32.4449997  87.7850037  79.5660019  33.1980019  88.3430023  78.0429993
  33.3190002  86.1920013  78.4069977  33.9560013  86.1979980  77.4970016
  32.5779991  85.3720016  78.2919998  34.1800003  85.8949966  79.6470032
  34.4109993  86.8479996  80.1699982  35.1450005  85.4609985  79.3099976
  33.5499992  84.8980026  80.6389999  34.2439995  84.7590027  81.4960022
  33.4589996  83.9209976  80.1190033  32.1559982  85.2679977  81.1849976
  31.7789993  84.3830032  81.7399979  31.4640007  85.4570007  80.3369980
  32.1320000  86.4680023  82.1439972  32.5890007  87.3460007  81.6399994
  32.7599983  86.2180023  83.0250015  30.7329998  86.8850021  82.6330032
  30.8530006  87.5339966  83.5260010  30.1679993  85.9850006  82.9599991
  29.9220009  87.6770020  81.5940018  29.9039993  87.1179962  80.6340027
  30.4430008  88.6409988  81.4089966  28.4790001  87.9560013  82.0419998
  28.4969997  88.2789993  83.1050034  27.9029999  87.0070038  81.9940033
  27.7649994  89.0299988  81.2200012  26.7010002  89.1169968  81.5270004
  27.8110008  88.7959976  80.1350021  28.2539997  90.0149994  81.3789978
  49.0890007  48.3769989  66.5289993  48.1430016  49.5009995  66.1630020
  48.6809998  50.4329987  66.2480011  47.3450012  49.5260010  66.8909988
  50.1720009  48.2709999  65.5100021  50.7980003  47.4119987  65.6999969
  49.7229996  48.1380005  64.5370026  50.7719994  49.1689987  65.4850006
  49.6679993  48.6119995  67.8840027  50.2019997  49.5499992  67.9240036
  48.8810005  48.6450005  68.6230011  50.3419991  47.8139992  68.1579971
  48.3289986  47.0970001  66.5520020  47.5989990  47.1080017  67.3479996
  48.9819984  46.2449989  66.6729965  47.7840004  47.0149994  65.6230011
  47.4860001  49.4430008  64.7580032  48.2859993  49.3330002  63.9949989
  47.0099983  50.4239998  64.5469971  45.0800018  48.4350014  65.2300034
  44.9039993  47.2770004  66.1569977  44.0970001  48.4949989  64.1050034
  46.5540009  48.3730011  64.6090012  45.0120010  49.7869987  66.0889969
  44.5340004  51.0289993  65.5530014  43.9669991  50.9049988  64.6060028
  45.3979988  51.6899986  65.3249969  43.5859985  51.7849998  66.5419998
  43.2519989  52.7229996  66.0490036  44.2439995  52.0820007  67.7900009
  45.1020012  53.0890007  67.7470016  45.3549995  53.7779999  66.7679977
  45.6990013  53.2929993  69.1389999  46.7789993  53.5289993  69.0270004
  45.5999985  52.3330002  69.6900024  42.2919998  50.9710007  66.8389969
  42.6160011  49.9599991  67.1660004  41.7290001  50.8510017  65.8889999
  41.4700012  51.6650009  67.8099976  41.1759987  51.0050011  68.9329987
  41.3499985  49.8110008  69.1210022  40.5559998  52.0040016  69.9209976
  39.6809998  52.4529991  69.4059982  41.2970009  52.8100014  70.1070023
  44.9739990  54.4230003  69.9010010  43.8740005  54.2750015  69.8399963
  45.2070007  55.3930016  69.4130020  45.3540001  54.5149994  71.3909988
  44.8979988  55.4490013  71.7839966  46.4550018  54.6170006  71.5009995
  44.8230019  53.3520012  72.2519989  43.9379997  52.9169998  71.7389984
  44.4630013  53.7630005  73.2190018  45.8330002  52.2260017  72.5520020
  46.2579994  51.8510017  71.5960007  45.2879982  51.3810005  73.0260010
  47.0029984  52.6180000  73.4739990  47.5120010  53.5159988  73.0630035
  47.7369995  51.7840004  73.4649963  46.5709991  52.8800011  74.9290009
  46.0760002  51.9609985  75.3099976  45.7949982  53.6749992  74.9199982
  47.7229996  53.2509995  75.8310013  48.4609985  52.4519997  75.9960022
  47.9080009  54.4399986  76.4349976  48.7820015  54.5740013  77.0899963
  47.0110016  55.6510010  76.3180008  46.6529999  55.7610016  75.2720032
  47.5839996  56.5719986  76.5579987  45.7639999  55.5880013  77.2289963
  45.2060013  54.6559982  76.9970016  45.0979996  56.4420013  76.9840012
  46.0810013  55.6349983  78.7340012  46.5180016  56.6259995  78.9800034
  46.8479996  54.8660011  78.9670029  44.8670006  55.3699989  79.6429977
  44.0820007  56.1389999  79.4759979  45.2109985  55.4659996  80.6940002
  44.2659988  53.9640007  79.4609985  45.1119995  53.2729988  79.2559967
  43.6020012  53.9430008  78.5699997  43.5250015  53.4290009  80.6969986
  44.1650009  53.5789986  81.5920029  43.3790016  52.3359985  80.5660019
  42.1520004  54.0639992  80.9359970  41.4939995  53.8110008  80.0770035
  42.2620010  55.1689987  80.9530029  41.4799995  53.6209984  82.2379990
  40.4799995  54.0960007  82.3359985  42.0979996  53.9239998  83.1100006
  41.3510017  52.5169983  82.2600021  40.0769997  51.3940010  71.2639999
  39.5029984  50.4580002  71.0950012  39.3689995  52.1290016  71.7040024
  41.1899986  51.1879997  72.3099976  40.8470001  51.6010017  73.2829971
  42.0830002  51.7750015  72.0080032  41.6010017  49.7239990  72.5530014
  42.5169983  49.7260017  73.1819992  41.8619995  49.2439995  71.5849991
  40.5270004  48.8870010  73.2699966  39.5880013  48.9189987  72.6770020
  40.3079987  49.3499985  74.2570038  40.9070015  47.4080009  73.4789963
  41.0800018  46.9469986  72.4830017  40.0439987  46.8849983  73.9440002
  42.1510010  47.1660004  74.3550034  43.0239983  47.6679993  73.8850021
  42.3639984  46.0760002  74.3720016  42.0000000  47.6539993  75.8059998
  41.0839996  47.1980019  76.2389984  41.8489990  48.7550011  75.8030014
  43.1949997  47.3079987  76.7170029  43.2830009  46.2010002  76.7689972
  42.9819984  47.6730003  77.7440033  44.5540009  47.8779984  76.2639999
  44.7579994  47.5250015  75.2300034  45.3549995  47.4570007  76.9089966
  44.6529999  49.4150009  76.2919998  43.6389999  49.8689995  76.3140030
  45.1370010  49.7449989  75.3470001  45.4910011  49.9770012  77.4550018
  45.5919991  51.0740013  77.3170013  46.5110016  49.5390015  77.4059982
  44.9049988  49.7270012  78.8529968  44.7869987  48.6339989  79.0159988
  43.8959999  50.1879997  78.9130020  45.7939987  50.3079987  79.9609985
  45.9360008  51.3919983  79.7639999  46.7949982  49.8310013  79.8929977
  45.2519989  50.1320000  81.3789978  45.2089996  49.0550003  81.6500015
  44.2319984  50.5610008  81.4720001  45.9160004  50.6409988  82.1100006
  79.5709991  38.6469994  65.1790009  80.6279984  38.4790001  64.8799973
  79.4830017  39.6889992  65.5520020  79.8840027  37.7980003  67.6569977
  78.9580002  37.2220001  68.6809998  80.3349991  39.2019997  67.9290009
  79.1689987  37.7280006  66.2060013  81.2089996  36.8820000  67.5569992
  81.2900009  35.7190018  66.7279968  80.7149963  35.8300018  65.7839966
  82.3519974  35.5909996  66.4250031  78.6829987  38.5600014  63.8899994
  77.6210022  38.4959984  64.2080002  78.8489990  39.7750015  63.1440010
  78.1880035  39.7589989  62.4490013  79.0039978  37.3580017  62.9379997
  80.0930023  37.4049988  62.7220001  78.4879990  37.5309982  61.9690018
  77.2850037  35.3559990  63.1860008  77.1569977  35.1230011  61.7159996
  77.1719971  34.1389999  64.0429993  78.6930008  36.0620003  63.4739990
  76.1869965  36.4350014  63.6259995  74.8460007  36.0499992  63.9620018
  74.6470032  34.9679985  63.8050003  74.1419983  36.5950012  63.2989998
  74.4540024  36.3759995  65.4459991  73.3919983  36.0709991  65.5609970
  74.6179962  37.7729988  65.7679977  73.6399994  38.5589981  65.3610001
  72.6829987  38.2130013  64.6800003  73.8310013  39.9729996  65.9260025
  73.0149994  40.5870018  65.4889984  74.8030014  40.3769989  65.5729980
  75.2539978  35.5270004  66.4820023  76.3229980  35.8209991  66.4000015
  75.1930008  34.4519997  66.2080002  74.8059998  35.7610016  67.8379974
  73.6409988  35.2019997  68.1470032  73.0230026  34.4189987  67.4390030
  73.1279984  35.7130013  69.5000000  72.3619995  34.9860001  69.8440018
  72.6320038  36.6930008  69.3310013  80.8669968  34.3600006  67.4020004
  81.2580032  33.5970001  66.6949997  79.4270020  34.2410011  67.4609985
  78.9729996  33.0009995  67.5979996  79.6579971  31.9869995  67.5479965
  77.4469986  33.0209999  67.7480011  77.0169983  33.0070000  66.7239990
  77.1429977  33.9650002  68.2500000  81.5859985  34.0569992  68.7730026
  81.4589996  32.9840012  69.0319977  82.6699982  34.1949997  68.5739975
  81.2180023  34.9259987  69.8690033  80.1500015  34.5499992  70.5839996
  79.5380020  33.5009995  70.4400024  79.8710022  35.6160011  71.6510010
  79.6869965  36.5740013  71.1190033  80.7819977  35.7430000  72.2740021
  73.7379990  40.0219994  67.4720001  73.0830002  39.2060013  67.8479996
  73.2649994  40.9830017  67.7659988  75.0999985  39.9570007  68.1790009
  75.7279968  40.8079987  67.8389969  75.6190033  39.0190010  67.8860016
  74.9909973  39.9930000  69.7129974  74.3949966  39.1160011  70.0419998
  74.4530029  40.9109993  70.0319977  76.3629990  39.9440002  70.4049988
  76.9160004  40.8870010  70.2060013  76.9440002  39.1110001  69.9540024
  76.2870026  39.6940002  71.9189987  75.7129974  38.7560005  72.0780029
  75.7340012  40.5169983  72.4209976  77.6699982  39.5279999  72.5729980
  78.1709976  40.5159988  72.6510010  78.2870026  38.8800011  71.9150009
  77.6060028  38.8610001  73.9560013  77.0540009  37.9070015  73.8190002
  77.0199966  39.4980011  74.6520004  78.9909973  38.5550003  74.5589981
  79.4929962  39.5229988  74.7710037  79.5910034  38.0449982  73.7760010
  78.9110031  37.6599998  75.7760010  78.3649979  36.7210007  75.6009979
  79.4420013  37.8779984  76.9960022  79.2890015  37.1189995  77.7760010
  80.2229996  39.0940018  77.4369965  80.0510025  39.9459991  76.7450027
  81.3130035  38.8790016  77.4189987  79.8580017  39.6030006  78.8450012
  78.7549973  39.6749992  78.9619980  80.2590027  40.6349983  78.9369965
  80.4609985  38.7779999  79.9929962  81.5490036  38.6520004  79.8079987
  79.9919968  37.7709999  80.0210037  80.2689972  39.4770012  81.3440018
  79.1790009  39.6090012  81.5149994  80.7200012  40.4900017  81.2829971
  80.8730011  38.7459984  82.5490036  80.5820007  37.6739998  82.5090027
  80.4169998  39.1749992  83.4670029  82.3909988  38.8720016  82.6660004
  82.7490005  38.3720016  83.5910034  82.6890030  39.9410019  82.7099991
  82.8960037  38.4039993  81.7939987  74.2249985  35.8510017  70.5770035
  74.9150009  36.6819992  70.3160019  74.8270035  34.9179993  70.6100006
  73.6429977  36.0999985  71.9759979  72.8430023  35.3569984  72.1790009
  73.1839981  37.1110001  72.0009995  74.6969986  35.9900017  73.0869980
  75.5510025  36.6549988  72.8389969  75.0820007  34.9480019  73.1149979
  74.1679993  36.3709984  74.4789963  73.2730026  35.7589989  74.7210007
  73.8560028  37.4370003  74.4479980  75.2190018  36.1959991  75.5869980
  76.1790009  36.6119995  75.2129974  75.3850021  35.1160011  75.7850037
  74.8889999  36.9230003  76.9010010  74.6930008  37.9920006  76.6709976
  75.7880020  36.8849983  77.5520020  73.7060013  36.3359985  77.6920013
  73.9339981  35.2719994  77.9130020  72.7829971  36.3670006  77.0729980
  73.4530029  37.0670013  79.0250015  74.4280014  37.1559982  79.5520020
  72.7870026  36.4529991  79.6689987  72.8249969  38.4630013  78.8600006
  71.7509995  38.3499985  78.6009979  73.3160019  38.9830017  78.0100021
  72.9670029  39.3860016  80.0830002  72.5220032  38.9169998  80.9869995
  72.3909988  40.3100014  79.8629990  74.4209976  39.8009987  80.3720016
  74.9589996  39.8520012  79.4020004  74.9029999  39.0130005  80.9899979
  74.5899963  41.1739998  81.0490036  74.2289963  41.9570007  80.3479996
  75.6729965  41.3510017  81.2229996  73.8389969  41.3429985  82.3750000
  74.2129974  40.5779991  83.0879974  72.7590027  41.1440010  82.2070007
  73.9860001  42.7249985  83.0009995  73.5810013  43.5050011  82.3219986
  75.0599976  42.9420013  83.1880035  73.4400024  42.7779999  83.9670029
  76.9120026  31.8190002  68.5550003  77.2590027  31.9039993  69.6070023
  77.3170013  30.8719997  68.1380005  75.3789978  31.7439995  68.5230026
  75.0609970  31.6240005  67.4660034  74.9560013  32.7060013  68.8860016
  74.7919998  30.5790005  69.3410034  75.2919998  29.6359997  69.0350037
  73.7160034  30.4820004  69.0849991  74.8990021  30.7350006  70.8700027
  75.9700012  30.7730007  71.1660004  74.4540024  29.8349991  71.3460007
  74.1800003  31.9820004  71.4069977  73.1689987  32.0369987  70.9499969
  74.7490005  32.8810005  71.0859985  74.0279999  32.0239983  72.9349976
  73.4339981  31.1469994  73.2699966  73.4550018  32.9379997  73.1999969
  75.3639984  32.0610008  73.6910019  75.9609985  32.9150009  73.3040009
  75.9329987  31.1299992  73.4830017  75.1660004  32.2220001  75.2089996
  74.5469971  31.3750000  75.5739975  74.5640030  33.1389999  75.3840027
  76.4690018  32.3209991  75.9629974  76.9189987  33.3240013  75.9769974
  77.1019974  31.3239994  76.6090012  78.0329971  31.5529995  77.1490021
  76.6620026  29.8829994  76.6949997  77.5179977  29.2290001  76.4229965
  75.8539963  29.6609993  75.9649963  76.1790009  29.4610004  78.0950012
  77.0159988  29.6310005  78.8059998  75.9609985  28.3719997  78.0970001
  74.9430008  30.2140007  78.6110001  74.0139999  29.8190002  78.1460037
  75.0339966  31.2779999  78.3040009  74.8440018  30.2390003  80.1449966
  74.2809982  31.1560001  80.4189987  75.8659973  30.3509998  80.5670013
  74.1549988  29.0429993  80.8150024  74.2030029  29.1970005  81.9140015
  74.7249985  28.1149998  80.5940018  72.6979980  28.8309994  80.4110031
  72.2149963  28.0769997  81.0690002  72.6589966  28.4640007  79.3629990
  72.1200027  29.7770004  80.4749985  78.6380005  35.3009987  72.5240021
  77.7549973  35.1030006  71.8779984  78.4039993  36.2130013  73.1139984
  78.8119965  34.1430016  73.5220032  78.7870026  33.1769981  72.9729996
  77.9359970  34.1559982  74.2060013  80.0989990  34.1920013  74.3610001
  80.2129974  35.2029991  74.8069992  80.9710007  34.0130005  73.6959991
  80.1240005  33.1500015  75.4889984  79.8740005  32.1539993  75.0650024
  79.3420029  33.4039993  76.2360001  81.4909973  33.0550003  76.1849976
  81.7480011  34.0340004  76.6429977  82.2509995  32.8359985  75.4049988
  81.5770035  31.9540005  77.2549973  82.6419983  31.8250008  77.5449982
  81.2249985  30.9960003  76.8170013  80.7699966  32.2519989  78.5260010
  79.7030029  32.3950005  78.2519989  81.1350021  33.1980019  78.9800034
  80.8740005  31.1250000  79.5640030  81.9459991  30.9689999  79.8109970
  80.4929962  30.1870003  79.1060028  80.1039963  31.3889999  80.8700027
  80.5270004  32.2809982  81.3799973  80.2679977  30.5149994  81.5360031
  78.5889969  31.5760002  80.6819992  78.0559998  31.0429993  81.4980011
  78.2809982  31.1100006  79.7210007  78.1269989  33.0419998  80.6999969
  78.6890030  33.6230011  79.9380035  78.3629990  33.4679985  81.6989975
  76.6210022  33.1870003  80.4349976  76.0780029  32.4959984  81.1139984
  76.4130020  32.8730011  79.3899994  76.0540009  34.5929985  80.6699982
  75.0090027  34.6110001  80.2929993  76.6269989  35.3349991  80.0739975
  76.0429993  35.0070000  82.1389999  75.5540009  34.2229996  82.7559967
  75.4779968  35.9550018  82.2710037  77.0790024  35.1549988  82.5120010
 100.7389984 132.5059967  64.5410004 100.2429962 131.0749969  64.5009995
  99.2050018 131.0789948  64.2030029 100.2910004 130.6829987  65.5059967
  99.8769989 133.3070068  65.4619980  99.8259964 132.8399963  66.4339981
 100.2669983 134.3079987  65.5729980  98.8740005 133.3910065  65.0699997
 102.1490021 132.5070038  65.0250015 102.7249985 131.8470001  64.3939972
 102.5820007 133.4960022  65.0080032 102.1999969 132.0919952  66.0210037
 100.7050018 133.1230011  63.1800003  99.6969986 133.1499939  62.7919998
 101.3170013 132.5469971  62.5019989 101.0859985 134.1329956  63.2060013
 101.0179977 130.0639954  63.6110001 101.1070023 130.4889984  62.5890007
 100.4029999 129.1439972  63.5130005 102.4729996 128.8020020  65.3909988
 103.8919983 128.8459930  65.8560028 101.9440002 127.4459991  65.0479965
 102.3270035 129.7570038  64.1070023 101.5329971 129.4929962  66.4899979
 101.1119995 128.8020020  67.6719971 101.4929962 127.7600021  67.7320023
 100.0039978 128.7239990  67.6470032 101.4720001 129.5279999  69.0220032
 100.5729980 129.4510040  69.6699982 101.8450012 130.9080048  68.8529968
 100.8769989 131.7489929  68.5550003  99.6989975 131.4680023  68.3629990
 101.4810028 133.1649933  68.5309982 101.9089966 133.3229980  67.5179977
 102.3109970 133.2220001  69.2659988 102.6149979 128.7920074  69.7939987
 103.5920029 128.9889984  69.3020020 102.4199982 127.7030029  69.6999969
 102.6320038 129.1139984  71.2020035 103.2590027 130.2539978  71.5439987
 103.8560028 130.9960022  70.7839966 103.1380005 130.4519958  73.0550003
 104.1589966 130.5489960  73.4830017 102.6630020 129.5520020  73.5009995
 100.4530029 134.2709961  68.8290024  99.4830017 134.0610046  68.3280029
 100.8450012 135.2180023  68.4000015 100.2429962 134.5079956  70.3300018
  99.6719971 135.4519958  70.4580002 101.2310028 134.6540070  70.8180008
  99.4860001 133.3890076  71.0559998 100.0739975 132.4490051  70.9899979
  98.5070038 133.2169952  70.5589981  99.2630005 133.7140045  72.5350037
  98.5530014 134.5619965  72.6370010 100.2369995 134.0330048  72.9639969
  98.7470016 132.5319977  73.3600006  99.2610016 131.6040039  73.0289993
  97.6610031 132.4019928  73.1630020  99.0169983 132.7189941  74.8629990
  98.6510010 133.7250061  75.1589966 100.1159973 132.7050018  75.0289993
  98.3109970 131.6820068  75.6869965  97.2160034 131.7369995  75.5999985
  98.8239975 130.6920013  76.4339981  98.1179962 130.0110016  76.9319992
 100.2710037 130.3480072  76.6669998 100.4649963 130.3289948  77.7610016
 100.9609985 131.1139984  76.2539978 100.6699982 128.9730072  76.0930023
 100.8949966 129.1000061  75.0130005  99.8310013 128.2519989  76.1859970
 101.8830032 128.3589935  76.8069992 102.6370010 129.1580048  76.9710007
 102.3470001 127.5780029  76.1669998 101.5159988 127.7279968  78.1600037
 100.9660034 126.7770004  77.9929962 100.8320007 128.4219971  78.6940002
 102.7180023 127.4899979  79.0780029 103.3000031 128.4360046  79.0989990
 103.3740005 126.6979980  78.6600037 102.3330002 127.1389999  80.5220032
 101.8639984 126.1320038  80.5419998 101.5790024 127.8700027  80.8830032
 103.5299988 127.1449966  81.4800034 104.3700027 126.5940018  81.0049973
 103.2470016 126.5960007  82.4039993 103.9929962 128.5420074  81.8759995
 104.9000015 128.4929962  82.5149994 103.1790009 129.0570068  82.4290009
 104.2249985 129.1470032  80.9739990 102.2939987 131.6860046  73.4039993
 101.8939972 131.5290070  74.4280014 101.4209976 131.7409973  72.7180023
 103.0120010 133.0500031  73.4140015 102.2770004 133.7920074  73.7929993
 103.2669983 133.3359985  72.3710022 104.2829971 133.1739960  74.2809982
 104.5189972 134.2510071  74.4120026 105.1330032 132.7290039  73.7210007
 104.2389984 132.5019989  75.6669998 105.2320023 132.6300049  76.1500015
 104.0810013 131.4100037  75.5390015 103.1650009 133.0469971  76.6200027
 102.1689987 132.9559937  76.1370010 103.3619995 134.1230011  76.8130035
 103.1279984 132.2810059  77.9499969 104.1460037 132.2870026  78.3929977
 102.8499985 131.2239990  77.7509995 102.1419983 132.8600006  78.9729996
 101.1070023 132.7980042  78.5729980 102.3840027 133.9349976  79.1139984
 102.2139969 132.1670074  80.3440018 101.8119965 132.8609924  81.1129990
 103.2779999 131.9700012  80.5950012 101.4039993 130.8690033  80.4749985
 101.6949997 130.3930054  81.4359970 101.6760025 130.1679993  79.6569977
  99.8830032 131.0930023  80.4909973  99.5479965 131.3280029  79.4580002
  99.6669998 131.9759979  81.1299973  99.0569992 129.9160004  81.0380020
  99.3130035 128.9819946  80.4929962  97.9850006 130.1430054  80.8539963
  99.2399979 129.7160034  82.5500031  99.2109985 130.7290039  83.0049973
 100.2480011 129.2969971  82.7570038  98.1620026 128.8789978  83.2480011
  97.1760025 129.0930023  82.7829971  98.1129990 129.2250061  84.3030014
  98.4140015 127.3769989  83.2559967  98.4449997 126.9899979  82.2149963
  97.6009979 126.8509979  83.8000031  99.3820038 127.1529999  83.7529984
  33.3540001  90.8560028  63.9879990  34.0359993  89.8740005  64.9130020
  35.1010017  89.9319992  64.7429962  33.7249985  88.8779984  64.6350021
  31.8750000  90.7139969  64.1080017  31.5569992  89.7559967  63.7239990
  31.6180000  90.7399979  65.1559982  31.3600006  91.5000000  63.5750008
  33.7389984  92.2500000  64.3440018  33.4560013  92.4599991  65.3649979
  34.8089981  92.3710022  64.2559967  33.2439995  92.9520035  63.6889992
  33.7439995  90.5940018  62.5699997  33.2400017  91.2860031  61.9109993
  33.4679985  89.5920029  62.2779999  34.8089981  90.7119980  62.4360008
  33.7659988  90.0429993  66.4280014  34.0449982  91.0739975  66.7320023
  34.4430008  89.3399963  66.9589996  31.9200001  89.8300018  68.2730026
  32.8699989  89.0569992  69.1289978  30.4880009  89.4029999  68.3259964
  32.4010010  89.7620010  66.7470016  32.0099983  91.3840027  68.6650009
  31.4990005  92.3600006  67.7429962  30.4899998  92.0869980  67.3669968
  32.1699982  92.4219971  66.8600006  31.3959999  93.8079987  68.3519974
  31.4260006  94.5210037  67.5000000  32.4589996  94.1190033  69.2750015
  33.6860008  94.0169983  68.7870026  33.9869995  93.9690018  67.6029968
  34.6910019  94.0609970  69.9449997  34.1860008  94.4850006  70.8389969
  35.5190010  94.7399979  69.6500015  30.0219994  94.0500031  69.0619965
  29.2269993  93.8359985  68.3150024  29.9309998  95.1279984  69.3150024
  29.8269997  93.1829987  70.2040024  30.2259998  93.6640015  71.3809967
  30.5209999  94.8270035  71.6139984  30.2360001  92.5220032  72.4029999
  31.0470009  91.8229980  72.1050034  29.2660007  91.9840012  72.3399963
  35.2509995  92.6600037  70.2710037  35.8250008  92.2910004  69.3939972
  34.4140015  91.9499969  70.4459991  36.1699982  92.6419983  71.5049973
  36.9519997  93.4229965  71.3939972  36.6829987  91.6569977  71.5400009
  35.4350014  92.8359985  72.8430023  34.6389999  92.0650024  72.9290009
  34.9440002  93.8330002  72.8590012  36.3800011  92.7229996  74.0510025
  37.1710014  93.4950027  73.9440002  36.8810005  91.7320023  74.0250015
  35.7050018  92.9140015  75.4250031  35.2290001  93.9179993  75.4459991
  36.4939995  92.9089966  76.2060013  34.6349983  91.8639984  75.8020020
  33.7859993  91.9550018  75.0920029  34.2309990  92.1409988  76.7990036
  35.1279984  90.4369965  75.8180008  34.9319992  89.8759995  74.8929977
  35.7709999  89.8119965  76.8239975  36.0639992  88.7610016  76.6849976
  36.1500015  90.3899994  78.1669998  35.6230011  91.3460007  78.3759995
  37.2379990  90.6139984  78.1729965  35.8670006  89.4130020  79.3249969
  36.2789993  88.4120026  79.0759964  34.7700005  89.2959976  79.4570007
  36.4980011  89.8499985  80.6589966  36.0569992  90.8160019  80.9860001
  37.5830002  90.0159988  80.4869995  36.3530006  88.8020020  81.7770004
  37.0489998  89.0490036  82.6070023  36.6570015  87.8150024  81.3679962
  34.9379997  88.6740036  82.3590012  34.8820000  87.7279968  82.9400024
  34.2150002  88.5960007  81.5189972  34.5239983  89.8399963  83.2659988
  34.5000000  90.7659988  82.6529999  35.2919998  89.9820023  84.0559998
  33.1479988  89.6719971  83.9319992  32.4059982  89.4069977  83.1490021
  32.8489990  90.6569977  84.3509979  33.0989990  88.6370010  85.0589981
  33.7989998  88.9150009  85.8769989  33.3820000  87.6330032  84.6780014
  32.0730019  88.5739975  85.4800034  30.4790001  93.0070038  73.8499985
  29.6289997  93.6429977  74.1800003  31.4020004  93.6250000  73.8899994
  30.6450005  91.8359985  74.8249969  31.5160007  91.2249985  74.5019989
  29.7469997  91.1839981  74.7809982  30.8719997  92.2779999  76.2789993
  29.9720001  92.8160019  76.6470032  31.7299995  92.9830017  76.3160019
  31.1749992  91.0839996  77.1940002  32.0820007  90.5739975  76.8050003
  30.3360004  90.3580017  77.1330032  31.4249992  91.4400024  78.6679993
  32.1510010  92.2789993  78.7310028  31.8899994  90.5569992  79.1549988
  30.1450005  91.7809982  79.4469986  29.4050007  90.9729996  79.2639999
  29.7169991  92.7289963  79.0559998  30.3549995  91.8960037  80.9680023
  30.8040009  90.9520035  81.3440018  29.3589993  92.0080032  81.4469986
  31.2469997  93.0749969  81.3850021  30.8190002  94.0100021  80.9639969
  32.2519989  92.9420013  80.9309998  31.4340000  93.2360001  82.9049988
  32.0279999  94.1569977  83.0869980  32.0349998  92.3759995  83.2710037
  30.1410007  93.3229980  83.7350006  29.6100006  92.3479996  83.6940002
  29.4750004  94.0920029  83.2890015  30.3789997  93.6949997  85.2119980
  29.3929996  93.7880020  85.7139969  30.8740005  94.6900024  85.2539978
  31.2439995  92.6869965  85.9869995  32.2210007  92.5790024  85.4690018
  30.7450008  91.6940002  85.9749985  31.5270004  93.0950012  87.4430008
  32.0629997  94.0690002  87.4369965  32.2200012  92.3440018  87.8789978
  30.2900009  93.2050018  88.3399963  29.6009998  93.9940033  87.9710007
  30.5860004  93.4570007  89.3809967  29.7390003  92.2399979  88.3570023
  70.2939987 115.6060028  62.5579987  71.2340012 116.0500031  62.1650009
  69.4749985 116.3190002  62.3240013  69.2399979 115.0439987  64.9550018
  69.8190002 114.9629974  66.3330002  68.5510025 113.8180008  64.4319992
  70.4479980 115.4380035  63.9700012  68.2710037 116.3339996  64.8720016
  66.9150009 116.2020035  64.4300003  66.6240005 117.1600037  63.9469986
  66.7959976 115.4380035  63.6320000  70.0319977 114.2829971  61.7579994
  68.9720001 114.0000000  61.9350014  70.1839981 114.5240021  60.3580017
  71.1279984 114.4280014  60.2109985  70.9029999 113.0500031  62.1739998
  70.5459976 112.1709976  61.5970001  70.6660004 112.8590012  63.2430000
  73.4540024 112.7450027  62.9560013  74.0319977 111.4800034  62.4080009
  74.4140015 113.8799973  63.1010017  72.3030014 113.2320023  61.9500008
  72.7679977 112.4359970  64.3850021  72.2389984 111.1350021  64.6979980
  73.0169983 110.5159988  65.1930008  71.9189987 110.5970001  63.7809982
  70.9660034 111.1800003  65.6230011  70.2699966 111.8949966  65.1360016
  71.2310028 111.7060013  66.9400024  71.8069992 110.9250031  67.8359985
  72.3369980 109.8399963  67.6269989  71.6949997 111.6129990  69.2020035
  70.6859970 112.0709991  69.2890015  72.4430008 112.4329987  69.2330017
  70.1910019 109.8140030  65.6169968  70.8929977 108.9950027  65.8809967
  69.8899994 109.6320038  64.5640030  68.9950027 109.8539963  66.4319992
  68.8850021 108.9629974  67.4209976  69.7300034 108.1389999  67.7340012
  67.4810028 109.0749969  68.0270004  66.8040009 108.5329971  67.3330002
  67.1709976 110.1419983  68.0449982  65.8410034 115.9160004  65.5559998
  64.8679962 116.1829987  65.0910034  65.9889984 116.6880035  66.7639999
  65.9469986 118.0029984  66.6610031  65.6999969 118.6429977  65.6480026
  66.0970001 118.6500015  68.0520020  65.3870010 118.1660004  68.7559967
  65.8030014 119.7149963  67.9349976  65.6839981 114.3949966  65.9280014
  64.6389999 114.2860031  66.2890015  65.7429962 113.8089981  64.9860001
  66.6660004 113.8949966  66.8759995  66.1959991 113.5380020  68.0800018
  65.0240021 113.5410004  68.4140015  67.3280029 112.9729996  68.9530029
  68.2730026 112.8980026  68.3740005  67.0009995 111.9449997  69.2190018
  71.9120026 110.6689987  70.4010010  72.8420029 110.0749969  70.2720032
  71.0569992 109.9619980  70.4609985  72.0120010 111.4700012  71.7080002
  71.1959991 112.2239990  71.7040024  72.9710007 112.0309982  71.7350006
  71.8570023 110.6620026  73.0090027  70.9010010 110.0960007  72.9800034
  71.7630005 111.4010010  73.8330002  72.9960022 109.6979980  73.3980026
  72.7760010 108.6849976  72.9980011  72.9869995 109.6309967  74.5070038
  74.4120026 110.0970001  72.9410019  74.5790024 111.1770020  73.1419983
  74.4970016 109.9349976  71.8460007  75.5289993 109.3059998  73.6439972
  76.4670029 109.4860001  73.0780029  75.3130035 108.2160034  73.6119995
  75.7500000 109.7639999  75.0920029  74.9039993 109.4089966  75.7180023
  75.7139969 110.8750000  75.1090012  77.0780029 109.3130035  75.7409973
  77.1039963 108.2020035  75.7460022  77.0189972 109.6480026  76.7990036
  78.3470001 109.8600006  75.1200027  78.9789963 109.1070023  74.6259995
  78.7549973 111.1460037  75.1250000  79.7160034 111.4069977  74.6559982
  78.0039978 112.2870026  75.7639999  77.1859970 111.8850021  76.4000015
  77.4940033 112.8990021  74.9899979  78.8249969 113.2350006  76.6600037
  79.1979980 114.0670013  76.0250015  79.7109985 112.7249985  77.0960007
  77.9619980 113.8069992  77.8050003  76.8939972 113.7149963  77.5120010
  78.1819992 114.8899994  77.9189987  78.1259995 113.1340027  79.1849976
  77.3259964 113.5490036  79.8359985  79.0910034 113.4169998  79.6559982
  78.0059967 111.6019974  79.2190018  77.3280029 111.2539978  78.4110031
  77.5120010 111.3580017  80.1839981  79.3239975 110.8229980  79.2080002
  79.9349976 111.1340027  80.0820007  79.9089966 111.0029984  78.2799988
  79.1240005 109.7330017  79.2939987  67.3529968 108.4449997  69.4339981
  67.9530029 107.5130005  69.5049973  66.2929993 108.1539993  69.5889969
  67.7369995 109.3799973  70.5869980  67.1019974 110.2900009  70.5319977
  68.7969971 109.6979980  70.4860001  67.5250015 108.7369995  71.9670029
  68.2259979 107.8820038  72.0759964  66.4899979 108.3379974  72.0230026
  67.7389984 109.7119980  73.1330032  66.9690018 110.5100021  73.0790024
  68.7300034 110.1999969  73.0139999  67.6650009 109.0550003  74.5220032
  68.3669968 108.1959991  74.5739975  66.6350021 108.6589966  74.6569977
  67.9670029 110.0339966  75.6709976  67.5879974 109.6100006  76.6250000
  67.4100037 110.9749985  75.4769974  69.4619980 110.3600006  75.8509979
  69.9089966 110.5169983  74.8460007  69.9769974 109.4909973  76.3140030
  69.7450027 111.6360016  76.6660004  69.2600021 112.4869995  76.1409988
  70.8379974 111.8330002  76.6740036  69.2310028 111.6129990  78.1139984
  68.1999969 111.1999969  78.1340027  69.1780014 112.6589966  78.4830017
  70.1320038 110.8330002  79.0830002  71.0680008 111.4209976  79.1969986
  70.4039993 109.8450012  78.6529999  69.5029984 110.6330032  80.4690018
  69.0360031 111.5920029  80.7799988  70.3059998 110.4000015  81.2020035
  68.4629974 109.5009995  80.5000000  68.9860001 108.5419998  80.2969971
  67.7259979 109.6610031  79.6839981  67.6959991 109.3850021  81.8249969
  68.4240036 109.3040009  82.6600037  67.1080017 108.4420013  81.8059998
  66.7340012 110.5410004  82.1029968  65.9710007 110.6190033  81.2990036
  67.2779999 111.5070038  82.1669998  66.2050018 110.3779984  83.0670013
  67.5309982 118.6029968  68.6190033  67.5350037 119.1969986  69.5579987
  68.2279968 119.0910034  67.9049988  68.0449982 117.1989975  68.9649963
  68.2669983 116.6689987  68.0139999  67.2580032 116.6190033  69.4929962
  69.3259964 117.1959991  69.8170013  70.0059967 118.0000000  69.4629974
  69.8379974 116.2220001  69.6610031  69.0660019 117.3460007  71.3229980
  68.4179993 116.5000000  71.6389999  68.5110016 118.2870026  71.5240021
  70.3450012 117.3180008  72.1770020  70.9789963 116.4540024  71.8820038
  70.0360031 117.1669998  73.2340012  71.1579971 118.6220016  72.0839996
  70.4840012 119.4570007  72.3720016  71.4729996 118.7949982  71.0329971
  72.3980026 118.6849976  72.9960022  72.8050003 119.7160034  72.9150009
  73.1750031 117.9840012  72.6250000  72.0810013 118.3489990  74.4710007
  72.0970001 117.2450027  74.5920029  71.0390015 118.6760025  74.6770020
  72.9739990 119.0380020  75.4710007  72.8919983 120.1350021  75.4710007
  73.7990036 118.4759979  76.3720016  74.3280029 119.1460037  77.0660019
  74.0920029 117.0120010  76.5830002  75.1910019 116.8730011  76.6589966
  73.7539978 116.3919983  75.7249985  73.4599991 116.4229965  77.8619995
  73.5719986 117.1299973  78.7109985  74.0199966 115.4990005  78.1220016
  71.9810028 116.0350037  77.6900024  71.9189987 115.2089996  76.9489975
  71.4300003 116.9089966  77.2809982  71.2760010 115.6039963  78.9860001
  70.2119980 115.3850021  78.7519989  71.2919998 116.4609985  79.6920013
  71.8820038 114.3830032  79.6900024  72.9499969 114.5889969  79.9160004
  71.8430023 113.5179977  78.9950027  71.1610031 114.0120010  80.9830017
  71.2109985 114.8519974  81.7080002  71.6240005 113.1129990  81.4430008
  70.0920029 113.7900009  80.7779999  67.5439987 113.7570038  70.2639999
  66.5839996 114.2070007  70.5989990  68.2519989 114.5910034  70.0699997
  68.0800018 112.8850021  71.4130020  68.8919983 112.2419968  71.0120010
  67.2699966 112.2149963  71.7699966  68.6709976 113.6679993  72.6019974
  69.4639969 114.3330002  72.1989975  69.1620026 112.9520035  73.2959976
  67.6849976 114.5370026  73.4120026  67.0000000 115.0899963  72.7330017
  68.3089981 115.2919998  73.9359970  66.8769989 113.7600021  74.4680023
  67.5780029 113.0729980  74.9879990  66.1149979 113.1330032  73.9570007
  66.1969986 114.6190033  75.5569992  65.7720032 113.9260025  76.3140030
  65.3529968 115.1900024  75.1139984  67.1470032 115.5999985  76.2720032
  67.3389969 116.4589996  75.5940018  68.1179962 115.0910034  76.4520035
  66.6309967 116.1259995  77.6230011  66.6800003 115.2969971  78.3610001
  65.5670013 116.4309998  77.5240021  67.4420013 117.3280029  78.1409988
  67.1439972 118.2180023  77.5459976  68.5240021 117.1559982  77.9570007
  67.2539978 117.6470032  79.6370010  66.1969986 117.4700012  79.9309998
  67.4749985 118.7249985  79.7900009  68.2040024 116.8509979  80.5449982
  69.2500000 117.0500031  80.2259979  68.0059967 115.7669983  80.4010010
  68.0910034 117.1770020  82.0410004  67.0250015 117.0950012  82.3420029
  68.4150009 118.2229996  82.2289963  68.9169998 116.2190018  82.9110031
  69.9929962 116.4550018  82.7699966  68.7519989 115.1849976  82.5380020
  68.5680008 116.2500000  84.3990021  69.2239990 115.5559998  84.9670029
  67.5130005 115.9339981  84.5479965  68.6910019 117.2750015  84.8089981
 106.8030014  35.1879997  67.6439972 106.2699966  34.3300018  66.5130005
 105.7779999  33.4700012  66.9430008 107.1110001  33.9560013  65.9479980
 105.6829987  35.8969994  68.3239975 104.9670029  35.2019997  68.7369995
 106.0459976  36.5289993  69.1210022 105.1729965  36.5250015  67.6080017
 107.5339966  34.3510017  68.6419983 106.8779984  33.6100006  69.0749969
 108.3690033  33.8429985  68.1819992 107.9140015  34.9669991  69.4440002
 107.7279968  36.2210007  67.0930023 108.6019974  35.7649994  66.6520004
 108.0350037  36.9189987  67.8580017 107.2009964  36.7540016  66.3150024
 105.2760010  34.9900017  65.5139999 104.3509979  35.2439995  66.0729980
 104.9899979  34.2190018  64.7669983 105.0800018  37.5040016  64.7279968
 103.9380035  37.3580017  63.7739983 106.0800018  38.5620003  64.3929977
 105.8489990  36.1049995  64.8239975 104.5169983  37.7379990  66.2129974
 103.7740021  38.9329987  66.4840012 102.8420029  38.9560013  65.8789978
 104.3649979  39.8390007  66.2330017 103.3460007  39.0279999  67.9840012
 102.6880035  39.9169998  68.0889969 104.4879990  39.1399994  68.8659973
 105.0039978  40.3610001  68.9369965 104.6320038  41.3339996  68.3000031
 106.1039963  40.3989983  69.9990005 106.9010010  41.0779991  69.6289978
 106.5279999  39.3790016  70.1190033 102.4729996  37.8120003  68.4199982
 103.0189972  36.8730011  68.1839981 101.5520020  37.8190002  67.7990036
 102.1090012  37.9389992  69.8119965 102.7639999  37.1710014  70.6800003
 103.3769989  36.1479988  70.4130020 102.6640015  37.7859993  72.0770035
 102.3030014  38.8320007  71.9830017 103.6900024  37.8079987  72.5029984
 105.5429993  40.9239998  71.3399963 104.7789993  40.2120018  71.7200012
 105.0360031  41.8989983  71.1719971 106.6129990  41.1300011  72.4260025
 106.1119995  41.4650002  73.3590012 107.2939987  41.9459991  72.1029968
 107.4609985  39.8849983  72.7399979 108.2170029  40.1529999  73.5090027
 108.0139999  39.5880013  71.8229980 106.6579971  38.6769981  73.2470016
 105.8750000  38.4140015  72.5039978 106.1470032  38.9589996  74.1920013
 107.5250015  37.4339981  73.4950027 108.3339996  37.6980019  74.2099991
 108.0049973  37.1479988  72.5350037 106.7160034  36.2470016  74.0510025
 105.8590012  36.0629997  73.3690033 106.2839966  36.5569992  75.0270004
 107.5459976  34.9920006  74.1740036 107.8489990  34.5470009  73.2139969
 107.9209976  34.3820000  75.3150024 108.5279999  33.4669991  75.2500000
 107.6080017  34.8419991  76.7180023 107.6210022  35.9510002  76.7819977
 108.3860016  34.4729996  77.4199982 106.2310028  34.3629990  77.2139969
 106.1449966  33.2579994  77.1289978 105.4479980  34.8180008  76.5709991
 105.9530029  34.7690010  78.6689987 106.2089996  35.8440018  78.7850037
 106.6090012  34.1930008  79.3560028 104.4820023  34.5789986  79.0640030
 104.2210007  33.5029984  78.9660034 103.8489990  35.1489983  78.3509979
 104.1709976  35.0610008  80.4899979 104.4950027  36.1199989  80.5790024
 104.7649994  34.4679985  81.2170029 102.6839981  34.9749985  80.8690033
 102.0849991  35.5279999  80.1129990 102.5360031  35.4799995  81.8470001
 102.1559982  33.5379982  80.9759979 102.7590027  33.0070000  81.7429962
 102.3099976  33.0260010  80.0019989 100.6800003  33.4440002  81.3580017
 100.0510025  33.9720001  80.6100006 100.5139999  33.9140015  82.3499985
 100.3470001  32.3849983  81.4229965 101.7200012  36.9850006  72.9929962
 102.1969986  36.0270004  73.2890015 100.8059998  36.7470016  72.4089966
 101.2360001  37.7430000  74.2429962 100.4680023  37.1100006  74.7369995
 100.7300034  38.6819992  73.9319992 102.3050003  38.0810013  75.2949982
 102.9520035  37.1969986  75.4810028 101.7699966  38.3059998  76.2429962
 103.1689987  39.3089981  74.9570007 102.5210037  40.0880013  74.5009995
 103.9349976  39.0219994  74.2050018 103.8880005  39.9329987  76.1640015
 103.1230011  40.3409996  76.8580017 104.5090027  40.7830009  75.8089981
 104.7829971  38.9589996  76.9430008 105.5820007  38.5620003  76.2809982
 104.1679993  38.0970001  77.2809982 105.4120026  39.6030006  78.1859970
 104.5940018  40.1069984  78.7440033 106.1460037  40.3810005  77.8840027
 106.0830002  38.5719986  79.1060028 106.9540024  38.1259995  78.5800018
 105.3489990  37.7599983  79.2949982 106.5370026  39.1150017  80.4690018
 107.3219986  39.8870010  80.3199997 106.9919968  38.2820015  81.0459976
 105.3980026  39.7260017  81.2990036 104.5449982  39.0149994  81.3450012
 105.0500031  40.6489983  80.7890015 105.8130035  40.0950012  82.7269974
 106.8150024  40.5709991  82.6790009 105.9110031  39.1679993  83.3310013
 104.8430023  41.0740013  83.4020004 103.8820038  41.0540009  82.8450012
 105.2649994  42.0979996  83.3109970 104.5329971  40.7840004  84.8779984
 104.1230011  39.7540016  84.9509964 103.7289963  41.4819984  85.1959991
 105.7149963  40.9269981  85.8339996 105.3990021  40.7130013  86.8779984
 106.1210022  41.9609985  85.7949982 106.5230026  40.2159996  85.5609970
  70.8389969  63.9119987  66.7210007  72.0830002  63.0489998  66.8300018
  71.9199982  62.3240013  67.6129990  72.9000015  63.6739998  67.1579971
  69.6539993  63.0509987  66.4290009  69.4349976  62.4039993  67.2649994
  68.7839966  63.6430016  66.1869965  69.9000015  62.4220009  65.5859985
  70.6039963  64.6510010  67.9980011  69.7040024  65.2440033  67.9380035
  70.5029984  63.9630013  68.8249969  71.4240036  65.3190002  68.2170029
  70.9950027  64.8850021  65.5999985  71.8099976  65.5670013  65.7939987
  70.0830002  65.4430008  65.4479980  71.2060013  64.3440018  64.6900024
  72.5469971  62.2760010  65.5609970  73.4919968  61.7550011  65.8259964
  72.8099976  63.0159988  64.7750015  71.7639999  59.8059998  64.9970016
  72.9749985  59.5019989  64.1740036  70.4929962  59.1640015  64.5410004
  71.5479965  61.3889999  65.0479965  72.0490036  59.3839989  66.5230026
  71.0459976  59.6679993  67.5110016  70.0699997  59.2109985  67.2419968
  70.8830032  60.7639999  67.5930023  71.4290009  59.1380005  68.9349976
  70.7559967  59.6339989  69.6660004  72.8069992  59.4039993  69.2809982
  73.0820007  60.6850014  69.4720001  72.2809982  61.6069984  69.4349976
  74.5690002  60.8470001  69.8010025  74.8629990  61.8870010  69.5410004
  75.1529999  60.1440010  69.1699982  71.1370010  57.6040001  69.0520020
  71.5049973  57.1380005  68.1119995  70.0390015  57.4410019  69.0899963
  71.8010025  56.9580002  70.1589966  71.4540024  57.3670006  71.3759995
  70.5169983  58.1059990  71.6419983  72.4369965  56.7410011  72.3720016
  73.4609985  56.9309998  71.9850006  72.2590027  55.6440010  72.3779984
  74.8339996  60.5779991  71.2979965  75.9290009  60.6300011  71.4810028
  74.4980011  59.5530014  71.5650024  74.1370010  61.5989990  72.2070007
  73.0400009  61.5489998  72.0370026  74.4749985  62.6209984  71.9280014
  74.4140015  61.3769989  73.7009964  75.5120010  61.4220009  73.8649979
  74.0680008  60.3639984  73.9980011  73.7419968  62.4269981  74.6029968
  74.0260010  63.4430008  74.2529984  74.1309967  62.3079987  75.6360016
  72.2089996  62.3180008  74.6559982  71.9499969  61.3059998  75.0350037
  71.7900009  62.4169998  73.6320038  71.5780029  63.3889999  75.5670013
  71.7829971  64.3899994  75.1330032  72.1100006  63.3559990  76.5419998
  70.0920029  63.2039986  75.7630005  69.4530029  63.7319984  75.0390015
  69.5080032  62.4830017  76.7379990  68.4100037  62.4459991  76.7860031
  70.2119980  61.6969986  77.8180008  71.3119965  61.6720009  77.6709976
  69.8679962  60.6409988  77.7939987  69.9270020  62.2500000  79.2259979
  68.8280029  62.2120018  79.3860016  70.2440033  63.3120003  79.3089981
  70.5609970  61.4249992  80.3570023  70.4290009  60.3510017  80.1039963
  69.9970016  61.6160011  81.2939987  72.0559998  61.6739998  80.6110001
  72.6070023  61.5740013  79.6510010  72.4169998  60.8709984  81.2870026
  72.4079971  63.0169983  81.2730026  72.0920029  63.8520012  80.6119995
  73.5130005  63.0660019  81.3769989  71.7829971  63.2019997  82.6669998
  71.9120026  62.2630005  83.2460022  70.6930008  63.3769989  82.5439987
  72.3889999  64.3600006  83.4769974  73.4349976  64.0970001  83.7409973
  71.8209991  64.4530029  84.4280014  72.3820038  65.7070007  82.7519989
  71.3529968  65.9589996  82.4169998  73.0380020  65.6760025  81.8570023
  72.7429962  66.5169983  83.4219971  72.3379974  57.2820015  73.8130035
  72.2809982  58.3909988  73.8209991  73.2789993  56.9980011  74.3320007
  71.1790009  56.6689987  74.6139984  71.1050034  55.5870018  74.3710022
  70.2259979  57.1500015  74.3069992  71.3560028  56.7910004  76.1389999
  72.2470016  56.1969986  76.4380035  70.4720001  56.3419991  76.6409988
  71.5339966  58.2340012  76.6340027  70.6510010  58.8300018  76.3180008
  72.4280014  58.6860008  76.1529999  71.6910019  58.3660011  78.1569977
  70.7939987  57.9599991  78.6709976  71.7389984  59.4519997  78.3899994
  72.9570007  57.7159996  78.7379990  73.8150024  57.9430008  78.0699997
  72.8320007  56.6129990  78.7789993  73.2740021  58.2690010  80.1350021
  72.4110031  58.0810013  80.8089981  73.3830032  59.3699989  80.0309982
  74.5589981  57.7340012  80.7860031  75.3649979  57.7140007  80.0210037
  74.3919983  56.6930008  81.1360016  75.0400009  58.6080017  81.9619980
  75.2009964  59.6380005  81.5770035  76.0179977  58.2280006  82.3280029
  74.0599976  58.6780014  83.1449966  74.0540009  57.7019997  83.6750031
  73.0329971  58.8499985  82.7570038  74.3639984  59.8129997  84.1340027
  74.3349991  60.7739983  83.5759964  75.3889999  59.6860008  84.5449982
  73.3499985  59.8909988  85.2870026  73.5019989  59.0209999  85.9609985
  72.3280029  59.8069992  84.8590012  73.4179993  61.1959991  86.1009979
  72.6289978  61.1590004  86.8830032  73.1689987  62.0410004  85.4240036
  74.7679977  61.4770012  86.7689972  75.0439987  60.6450005  87.4509964
  74.7180023  62.4160004  87.3600006  75.5680008  61.5880013  86.0059967
  39.5470009  66.6999969  65.2089996  40.4410019  67.1250000  65.5279999
  39.5110016  66.7369995  64.1699982  38.7540016  67.2659988  65.5739975
  39.3849983  65.2809982  65.7050018  39.4970016  65.2959976  66.8099976
  40.1959991  64.6620026  65.2639999  37.9980011  64.7289963  65.3249969
  37.9010010  63.7229996  65.7870026  37.9440002  64.6019974  64.2229996
  35.4640007  65.1370010  65.9479980  35.2789993  63.7890015  65.3399963
  34.5569992  66.2070007  65.4489975  35.3139992  65.0339966  67.5329971
  36.9729996  65.6240005  65.7620010  36.0139999  64.0169983  68.2600021
  37.0629997  63.8899994  67.9169998  35.4869995  63.0470009  68.1309967
  36.0540009  64.3410034  69.7839966  35.0449982  64.7170029  70.0579987
  37.0960007  65.3079987  70.0309982  36.8769989  66.1549988  71.0299988
  35.8380013  66.2710037  71.6610031  38.1419983  66.9919968  71.2610016
  37.8899994  68.0410004  70.9940033  38.9469986  66.6439972  70.5800018
  36.3310013  63.0540009  70.6129990  37.4029999  62.7960014  70.4759979
  35.7099991  62.2299995  70.1999969  35.9990005  63.2540016  71.9990005
  36.4259987  62.2989998  72.8209991  37.1110001  61.3429985  72.4940033
  35.9059982  62.5870018  74.2279968  36.0289993  63.6759987  74.4100037
  36.5359993  62.0359993  74.9580002  38.6279984  66.9290009  72.7259979
  37.8300018  67.2809982  73.4130020  39.4860001  67.6259995  72.8290024
  39.0960007  65.5250015  73.1439972  39.7249985  65.1039963  72.3300018
  38.2120018  64.8619995  73.2630005  39.9290009  65.5039978  74.4410019
  40.8320007  66.1340027  74.2949982  40.2750015  64.4639969  74.6230011
  39.1790009  65.9940033  75.6920013  38.2840004  65.3550034  75.8479996
  38.8279991  67.0350037  75.5250015  40.0589981  65.9710007  76.9570007
  40.9720001  66.5680008  76.7450027  40.3880005  64.9300003  77.1630020
  39.3880005  66.5680008  78.2149963  38.9990005  67.5759964  77.9540024
  40.1829987  66.7210007  78.9759979  38.2729988  65.7050018  78.7559967
  37.5760002  65.3339996  77.9899979  38.0649986  65.3290024  80.0339966
  37.2099991  64.6679993  80.2450027  38.8549995  65.6940002  81.2689972
  39.7150002  66.3590012  81.0400009  39.2739983  64.7730026  81.7269974
  37.9720001  66.3919983  82.3270035  37.0589981  65.7919998  82.5260010
  37.6459999  67.3730011  81.9189987  38.6959991  66.6470032  83.6610031
  38.1459999  67.4339981  84.2220001  39.7089996  67.0439987  83.4380035
  38.8279991  65.4160004  84.5749969  39.5839996  65.6500015  85.3550034
  39.2109985  64.5520020  83.9909973  37.5229988  65.0199966  85.2860031
  36.7910004  64.6500015  84.5360031  37.0929985  65.9309998  85.7539978
  37.7229996  63.9650002  86.3909988  36.7770004  63.8639984  86.9649963
  38.5019989  64.3339996  87.0930023  38.1349983  62.5709991  85.8899994
  38.3720016  61.9389992  86.7730026  39.0680008  62.6580009  85.2929993
  37.0709991  61.8549995  85.0579987  36.8870010  62.3919983  84.1029968
  36.1150017  61.7919998  85.6210022  37.4010010  60.8209991  84.8199997
  34.4210014  62.1769981  74.3740005  34.3600006  61.0699997  74.4520035
  33.8429985  62.4819984  73.4749985  33.7430000  62.8120003  75.5979996
  34.3689995  62.6339989  76.4980011  32.7659988  62.3079987  75.7590027
  33.4739990  64.3160019  75.4280014  32.8639984  64.4599991  74.5100021
  34.4300003  64.8629990  75.2819977  32.7239990  64.9410019  76.6139984
  31.8120003  64.3430023  76.8259964  32.3940010  65.9619980  76.3239975
  33.5800018  65.0589981  77.8860016  34.4770012  65.6740036  77.6579971
  33.9300003  64.0510025  78.1959991  32.8110008  65.7099991  79.0449982
  31.9489994  65.0650024  79.3180008  32.3950005  66.6719971  78.6740036
  33.6510010  65.9929962  80.3040009  32.9850006  66.4319992  81.0770035
  34.4160004  66.7590027  80.0550003  34.3689995  64.7730026  80.9089966
  34.8930016  65.0920029  81.8349991  35.1399994  64.4229965  80.1900024
  33.4510002  63.5859985  81.2350006  33.0400009  63.2010002  80.2770004
  32.5999985  63.9239998  81.8629990  34.1819992  62.4339981  81.9400024
  34.4099998  62.7350006  82.9850006  35.1510010  62.2519989  81.4270020
  33.3769989  61.1240005  81.9329987  33.2369995  60.8180008  80.8740005
  32.3699989  61.2999992  82.3679962  34.0740013  59.9700012  82.6770020
  35.1440010  59.9529991  82.3799973  33.6220016  59.0060005  82.3570023
  33.9760017  60.0509987  84.2089996  34.3040009  61.0600014  84.5380020
  34.6860008  59.3149986  84.6419983  32.5810013  59.7639999  84.7679977
  32.2420006  58.7529984  84.4570007  31.8460007  60.5079994  84.3949966
  32.5890007  59.8030014  85.8779984 140.6340027  84.4089966  66.9219971
 140.6840057  83.3850021  66.7460022 141.0570068  84.9020004  66.1100006
 141.1799927  84.6320038  67.7789993 139.1719971  84.7750015  67.0670013
 139.1080017  85.8489990  67.3450012 138.7579956  84.1650009  67.8980026
 138.3869934  84.5110016  65.7559967 138.6280060  85.3359985  65.0520020
 137.2960052  84.5810013  65.9509964 138.5809937  81.8639984  65.8180008
 139.8829956  81.6470032  66.5070038 138.1620026  80.8539963  64.8079987
 137.4380035  82.0889969  66.9100037 138.6999969  83.2770004  65.1090012
 136.7700043  80.9369965  67.4520035 137.4160004  80.0350037  67.5059967
 135.9029999  80.6900024  66.8030014 136.2519989  81.2289963  68.8899994
 135.9839935  82.3079987  68.8949966 137.2949982  80.9260025  69.8379974
 137.3200073  81.6849976  70.9229965 136.6239929  82.6669998  71.1299973
 138.3630066  81.1190033  71.8850021 139.3339996  81.0550003  71.3479996
 138.0350037  80.0930023  72.1559982 134.9530029  80.4349976  69.2229996
 135.2079926  79.3899994  69.5019989 134.3509979  80.3710022  68.2910004
 134.1549988  81.1299973  70.2030029 134.2359924  80.7119980  71.4619980
 134.8350067  79.7210007  71.8489990 133.4779968  81.7040024  72.3460007
 132.3939972  81.6399994  72.1110001 133.8390045  82.7200012  72.0790024
 138.5119934  81.9759979  73.1589966 137.5299988  82.0559998  73.6719971
 138.8240051  83.0039978  72.8740005 139.5460052  81.4100037  74.1449966
 139.6320038  82.1090012  75.0039978 140.5370026  81.3740005  73.6439972
 139.2200012  80.0080032  74.6940002 140.0540009  79.6989975  75.3600006
 139.1710052  79.2740021  73.8619995 137.9140015  79.9499969  75.4990005
 137.0489960  80.1579971  74.8339996 137.9440002  80.7539978  76.2659988
 137.7039948  78.6039963  76.2109985 138.6510010  78.3349991  76.7249985
 137.4969940  77.8099976  75.4619980 136.5959930  78.6409988  77.2829971
 136.8209991  79.4820023  77.9729996 136.6699982  77.7070007  77.8809967
 135.2019958  78.7919998  76.7259979 135.1450043  79.1439972  75.6849976
 134.0619965  78.5380020  77.3970032 133.1000061  78.6819992  76.8830032
 133.9609985  78.0899963  78.8369980 133.3220062  78.8030014  79.4000015
 134.9550018  78.0989990  79.3339996 133.3880005  76.6660004  79.0110016
 134.0130005  75.9649963  78.4179993 132.3509979  76.6210022  78.6149979
 133.4019928  76.1660004  80.4710007 134.4429932  76.2590027  80.8470001
 133.1349945  75.0869980  80.4909973 132.4759979  76.9309998  81.4329987
 132.6300049  78.0210037  81.2819977 132.7720032  76.7009964  82.4779968
 130.9869995  76.5910034  81.2620010 130.7850037  75.6139984  81.7509995
 130.7729950  76.4700012  80.1790009 130.0110016  77.6480026  81.8030014
 130.2859955  77.9209976  82.8440018 128.9960022  77.1969986  81.8259964
 129.9429932  78.9130020  80.9309998 129.7290039  78.6029968  79.8850021
 130.9380035  79.4059982  80.9369965 128.8840027  79.9209976  81.3740005
 127.8740005  79.4580002  81.3600006 128.8739929  80.8050003  80.7020035
 129.0899963  80.2720032  82.4079971 133.7290039  81.4589996  73.8470001
 134.8099976  81.2639999  74.0120010 133.1699982  80.5630035  74.1910019
 133.3659973  82.6709976  74.7139969 132.2830048  82.9020004  74.6250000
 133.9279938  83.5500031  74.3320007 133.7290039  82.4520035  76.1900024
 134.7619934  82.0459976  76.2419968 133.0509949  81.6809998  76.6129990
 133.6569977  83.7170029  77.0630035 133.8509979  83.4219971  78.1159973
 132.6260071  84.1309967  77.0199966 134.6470032  84.8410034  76.6930008
 134.5509949  85.6370010  77.4619980 134.3399963  85.2870026  75.7220001
 136.1289978  84.4309998  76.5999985 136.7319946  85.3529968  76.4570007
 136.2729950  83.7910004  75.7040024 136.6560059  83.6689987  77.8270035
 136.1719971  82.6689987  77.8519974 136.3630066  84.2089996  78.7519989
 138.1809998  83.4749985  77.8199997 138.6600037  84.4359970  78.1050034
 138.5030060  83.2289963  76.7860031 138.6739960  82.3509979  78.7490005
 139.7830048  82.3850021  78.8050003 138.3899994  81.3779984  78.2929993
 138.0890045  82.3809967  80.1689987 136.9859924  82.2740021  80.0920029
 138.2890015  83.3610001  80.6520004 138.5989990  81.2399979  81.0670013
 138.7839966  80.3320007  80.4540024 137.7920074  80.9860001  81.7880020
 139.8390045  81.6080017  81.8960037 139.6300049  82.5640030  82.4229965
 140.7100067  81.7750015  81.2269974 140.1940002  80.5619965  82.9649963
 139.2910004  80.3700027  83.5830002 140.9640045  80.9980011  83.6370010
 140.7220001  79.2340012  82.4160004 140.0189972  78.8050003  81.6719971
 140.8419952  78.5029984  83.2440033 141.7120056  79.3799973  81.9319992
  87.3980026  58.0209999  65.0260010  88.3539963  58.2999992  66.1740036
  87.8690033  58.0390015  67.1029968  88.5279999  59.3650017  66.2180023
  87.1910019  56.5509987  64.8379974  86.7509995  56.0950012  65.7129974
  86.5360031  56.3610001  64.0000000  88.1350021  56.0690002  64.6340027
  86.0739975  58.6699982  65.2910004  85.6470032  58.3209991  66.2200012
  86.1760025  59.7439995  65.3519974  85.3759995  58.4519997  64.4960022
  87.9700012  58.5909996  63.7680016  88.0920029  59.6609993  63.8569984
  87.3499985  58.3730011  62.9119987  88.9560013  58.1780014  63.6139984
  89.7699966  57.6699982  66.1279984  89.6819992  56.5830002  65.9179993
  90.2229996  57.7560005  67.1389999  91.2180023  59.7309990  65.4010010
  91.9589996  60.1609993  64.1750031  92.0149994  59.7029991  66.6669998
  90.6050034  58.2719994  65.1340027  89.9240036  60.6739998  65.5670013
  89.9800034  61.8730011  66.3519974  89.6050034  62.7229996  65.7409973
  91.0100021  62.1479988  66.6650009  89.0820007  61.7939987  67.6299973
  89.1760025  62.7620010  68.1669998  89.4660034  60.6980019  68.4899979
  90.5530014  60.9239998  69.2160034  91.1829987  61.9729996  69.2519989
  90.8330002  59.6899986  70.0879974  91.4339981  58.9739990  69.4879990
  89.8659973  59.2140007  70.3570023  87.5709991  61.6689987  67.2610016
  87.4020004  60.7480011  66.6630020  87.3160019  62.5289993  66.6050034
  86.7480011  61.7260017  68.4410019  86.5299988  60.5579987  69.0599976
  86.7210007  59.4510002  68.5800018  86.0479965  60.8170013  70.4909973
  86.0360031  59.8419991  71.0240021  85.0070038  61.2010002  70.4309998
  91.5839996  60.0849991  71.3740005  90.9990005  60.8680000  71.9020004
  92.5699997  60.5229988  71.1070023  91.8109970  58.9039993  72.3310013
  92.4179993  58.1389999  71.8010025  90.8389969  58.4389992  72.5979996
  92.5540009  59.3120003  73.6139984  93.4369965  59.9220009  73.3249969
  92.9339981  58.4039993  74.1299973  91.7009964  60.1139984  74.6100006
  90.9759979  59.4309998  75.1029968  91.1190033  60.8849983  74.0609970
  92.5429993  60.8349991  75.6740036  93.3379974  61.4010010  75.1429977
  93.0540009  60.0960007  76.3270035  91.7590027  61.8520012  76.5289993
  91.1819992  62.5070000  75.8420029  92.5100021  62.4980011  77.0309982
  90.8239975  61.2169991  77.5319977  90.2239990  60.3849983  77.1360016
  90.6589966  61.5489998  78.8270035  89.9199982  60.9910011  79.4209976
  91.3769989  62.6360016  79.5869980  90.6760025  63.4780006  79.7720032
  92.2249985  63.0600014  79.0080032  91.9410019  62.2270012  80.9629974
  91.1129990  62.0449982  81.6809998  92.4940033  63.1150017  81.3369980
  92.9449997  61.0579987  80.9820023  93.6449966  61.2459984  81.8249969
  93.5500031  61.0769997  80.0500031  92.3580017  59.6440010  81.1839981
  93.2099991  58.9399986  81.2979965  91.8030014  59.3470001  80.2689972
  91.4250031  59.4690018  82.3980026  91.0950012  58.4099998  82.4599991
  90.5130005  60.0810013  82.2289963  92.0360031  59.8769989  83.7470016
  92.5360031  60.8629990  83.6399994  92.8099976  59.1339989  84.0360031
  90.9960022  60.0099983  84.8619995  90.4860001  59.0320015  84.9919968
  90.2320023  60.7449989  84.5309982  91.5680008  60.4560013  86.2040024
  92.2929993  59.7050018  86.5859985  90.7500000  60.5629997  86.9479980
  92.0930023  61.4300003  86.1060028  86.9420013  61.8289986  71.2460022
  87.0289993  62.7519989  70.6340027  87.9629974  61.4129982  71.3809967
  86.3470001  62.2490005  72.5989990  85.2870026  62.5320015  72.4219971
  86.8740005  63.1549988  72.9680023  86.3939972  61.1699982  73.6910019
  85.9879990  60.2159996  73.2919998  85.7320023  61.4939995  74.5220032
  87.8059998  60.9350014  74.2529984  88.1839981  61.8860016  74.6849976
  88.4879990  60.6520004  73.4240036  87.8840027  59.8390007  75.3290024
  88.9459991  59.7480011  75.6409988  87.5800018  58.8629990  74.8919983
  87.0400009  60.1119995  76.5810013  85.9700012  59.9539986  76.3259964
  87.1640015  61.1699982  76.8960037  87.4229965  59.1980019  77.7549973
  88.4130020  59.5029984  78.1549988  87.5179977  58.1590004  77.3720016
  86.3929977  59.1800003  78.8939972  86.6989975  58.4220009  79.6470032
  85.4250031  58.8409996  78.4670029  86.1529999  60.5229988  79.6080017
  85.2870026  60.3629990  80.2850037  85.8590012  61.3030014  78.8740005
  87.3160019  61.0369987  80.4779968  87.8499985  61.8559990  79.9499969
  88.0439987  60.2140007  80.6419983  86.8209991  61.5130005  81.8519974
  86.3290024  60.6450005  82.3399963  86.0449982  62.2949982  81.7119980
  87.8860016  62.0410004  82.8259964  88.2829971  63.0079994  82.4499969
  88.7269974  61.3180008  82.8929977  87.2929993  62.2330017  84.2300034
  87.0220032  61.2319984  84.6289978  86.3410034  62.7939987  84.1119995
  88.1549988  62.9220009  85.2760010  88.4020004  63.9580002  84.9599991
  89.1029968  62.3629990  85.4219971  87.6200027  62.9720001  86.2480011
 104.6800003 107.5770035  68.4440002 105.0780029 106.4329987  67.5329971
 105.4530029 105.6240005  68.1419983 105.8970032 106.7699966  66.9150009
 104.3690033 108.7730026  67.6090012 105.2600021 109.1210022  67.1070023
 103.6689987 108.4690018  66.8440018 103.9619980 109.5739975  68.2070007
 103.4690018 107.2180023  69.2289963 102.6640015 106.9860001  68.5490036
 103.6549988 106.3600006  69.8580017 103.1679993 108.0439987  69.8570023
 105.7939987 107.9219971  69.3759995 106.6800003 108.1969986  68.8229980
 106.0370026 107.0899963  70.0199966 105.5189972 108.7620010  69.9970016
 103.9850006 105.8649979  66.5869980 103.1340027 105.5120010  67.2080002
 104.4319992 104.9789963  66.0879974 102.7880020 106.4089966  64.2839966
 103.2089996 105.0449982  63.8349991 102.9860001 107.4929962  63.2709999
 103.5400009 106.8330002  65.6350021 101.2279968 106.3789978  64.6579971
 100.6839981 105.4169998  65.5719986 101.4580002 104.8759995  66.1559982
 100.1190033 104.6510010  64.9980011  99.6949997 106.0670013  66.5899963
  98.9079971 106.5520020  65.9749985 100.3880005 107.0419998  67.3980026
  99.6060028 107.9540024  67.9599991  98.3970032 108.0579987  67.7979965
 100.5009995 108.8809967  68.7929993 101.2799988 109.2850037  68.1110001
 101.0049973 108.2549973  69.5599976  99.0009995 104.9889984  67.4820023
  98.5719986 104.2289963  66.7939987  98.1409988 105.4449997  68.0169983
  99.9459991 104.3379974  68.3610001 100.0449982 104.8720016  69.5849991
  99.2630005 105.6650009  70.0839996 101.3330002 104.3560028  70.2330017
 102.1470032 104.4550018  69.4840012 101.2009964 103.2809982  70.4769974
  99.7480011 110.0429993  69.4720001  98.9089966 110.3889999  68.8300018
 100.4430008 110.9020004  69.5869980  99.2279968 109.6750031  70.8700027
  98.6900024 108.7040024  70.8089981  98.4990005 110.4449997  71.1999969
 100.3460007 109.5869980  71.9219971 100.8420029 110.5790024  71.9929962
 101.1129990 108.8519974  71.5960007  99.8769989 109.1709976  73.3249969
  99.0770035 109.8550034  73.6819992 100.7490005 109.2900009  74.0019989
  99.3899994 107.7129974  73.3980026 100.1039963 107.0810013  72.8290024
  98.4049988 107.6399994  72.8880005  99.2580032 107.1429977  74.8270035
  98.8040009 106.1320038  74.7480011  98.5500031 107.7760010  75.4029999
 100.6029968 107.0439987  75.5009995 101.4260025 106.7639999  74.8259964
 100.9150009 107.3610001  76.7679977 101.9680023 107.2740021  77.0739975
  99.9980011 107.8150024  77.8740005 100.2429962 107.2460022  78.7969971
  98.9369965 107.5920029  77.6320038 100.0930023 109.3219986  78.2060013
  99.3939972 109.5289993  79.0439987  99.7379990 109.9049988  77.3290024
 101.4919968 109.8389969  78.6009979 101.4150009 110.9280014  78.8040009
 102.1809998 109.7040024  77.7399979 102.1200027 109.1529999  79.8249969
 102.2720032 108.0790024  79.5839996 101.4229965 109.2080002  80.6880035
 103.4779968 109.7519989  80.2269974 103.3249969 110.7910004  80.5889969
 104.1159973 109.7949982  79.3190002 104.2350006 108.9459991  81.2979965
 105.2279968 109.4160004  81.4589996 104.3990021 107.9179993  80.9100037
 103.5070038 108.8499985  82.6449966 102.5479965 108.3150024  82.4769974
 103.2590027 109.8740005  82.9970016 104.2829971 108.1169968  83.7389984
 105.2379990 108.6419983  83.9570007 104.5090027 107.0770035  83.4219971
 103.6790009 108.0800018  84.6699982 101.7050018 105.1439972  71.5049973
 100.9509964 104.9619980  72.3000031 101.6920013 106.2320023  71.2779999
 103.0950012 104.7669983  72.0279999 103.8330002 104.8960037  71.2080002
 103.0960007 103.6910019  72.3079987 103.5680008 105.5889969  73.2389984
 104.5879974 105.2389984  73.5080032 102.9039993 105.3899994  74.1070023
 103.6240005 107.1060028  72.9940033 102.6149979 107.5419998  73.1539993
 103.8929977 107.2630005  71.9270020 104.6740036 107.8669968  73.8249969
 104.7409973 108.8919983  73.4010010 105.6669998 107.3889999  73.6890030
 104.3909988 108.0189972  75.3320007 103.3499985 108.3740005  75.4929962
 105.0780029 108.8050003  75.7119980 104.6419983 106.7549973  76.1709976
 105.5859985 106.2809982  75.8270035 103.8089981 106.0419998  75.9940033
 104.7580032 107.0309982  77.6790009 103.8160019 107.4980011  78.0380020
 105.5749969 107.7669983  77.8359985 105.0640030 105.7890015  78.5380020
 105.2289963 106.1190033  79.5859985 106.0139999 105.3430023  78.1729965
 103.9749985 104.6979980  78.5319977 104.3529968 103.7979965  79.0619965
 103.7789993 104.4029999  77.4789963 102.6409988 105.1200027  79.1689987
 101.8539963 104.4010010  78.8570023 102.3450012 106.1179962  78.7789993
 102.6409988 105.1750031  80.7009964 103.4120026 105.8980026  81.0439987
 102.9020004 104.1709976  81.0970001 101.2809982 105.5979996  81.2669983
 100.4960022 104.9400024  80.8369980 101.0709991 106.6350021  80.9290009
 101.1979980 105.5309982  82.7890015 101.9459991 106.2180023  83.2389984
 101.4000015 104.5000000  83.1480026 100.1859970 105.8330002  83.1340027
  77.4300003 131.2339935  65.4359970  76.6029968 130.8650055  64.2139969
  77.2689972 130.4940033  63.4500008  76.1470032 131.7619934  63.8209991
  78.1009979 130.0090027  65.9749985  77.3600006 129.2680054  66.2340012
  78.7630005 129.5789948  65.2369995  78.6809998 130.2330017  66.8580017
  78.4710007 132.2400055  65.0589981  78.0279999 133.1159973  64.6110001
  79.0360031 132.5529938  65.9250031  79.1679993 131.8190002  64.3489990
  76.5350037 131.8020020  66.4909973  76.0859985 132.7259979  66.1569977
  77.0609970 131.9700012  67.4189987  75.7229996 131.1089935  66.6529999
  75.4619980 129.8300018  64.4039993  75.8779984 128.9149933  64.8789978
  75.1019974 129.5460052  63.3919983  73.2549973 129.3809967  65.7050018
  73.0139999 128.2989960  64.6999969  72.0540009 130.1840057  66.0869980
  74.3789978 130.3840027  65.1579971  73.9369965 128.7550049  67.0250015
  74.2060013 129.5740051  68.1760025  73.9179993 130.6349945  68.0220032
  75.2969971 129.5740051  68.3830032  73.4359970 129.0950012  69.4570007
  73.5080032 129.9129944  70.2060013  73.9970016 127.8710022  69.9850006
  75.1429977 128.0260010  70.6409988  75.6589966 129.0980072  70.9280014
  75.7529984 126.6460037  70.9300003  76.5849991 126.5029984  70.2080002
  74.9940033 125.8560028  70.7460022  71.9160004 128.9089966  69.1510010
  71.8199997 128.0310059  68.4769974  71.5660019 129.7910004  68.5739975
  71.0979996 128.6869965  70.3229980  70.7109985 129.7980042  70.9560013
  71.1149979 130.9259949  70.7149963  69.6129990 129.4129944  71.9560013
  69.9710007 128.5509949  72.5579987  68.7320023 129.0839996  71.3649979
  76.2919998 126.5189972  72.3700027  77.0240021 127.3280029  72.5820007
  76.8369980 125.5530014  72.4390030  75.1949997 126.5130005  73.4479980
  74.3909988 125.8079987  73.1449966  74.7509995 127.5289993  73.5240021
  75.7220001 126.0839996  74.8290024  76.6039963 126.7070007  75.0889969
  76.0640030 125.0279999  74.7679977  74.7009964 126.2129974  75.9749985
  73.7630005 125.6819992  75.7060013  74.4619980 127.2900009  76.1100006
  75.2409973 125.6539993  77.3050003  76.2730026 126.0410004  77.4420013
  75.3170013 124.5479965  77.2360001  74.4580002 126.0410004  78.5770035
  74.4710007 127.1470032  78.6760025  75.0329971 125.6439972  79.4410019
  73.0490036 125.5059967  78.6200027  72.8799973 124.6029968  78.0159988
  72.0090027 126.0469971  79.2860031  71.0299988 125.5490036  79.2289963
  72.0319977 127.2639999  80.1819992  73.0599976 127.4810028  80.5439987
  71.4069977 127.0660019  81.0780029  71.5049973 128.5379944  79.4919968
  70.5339966 128.3269958  78.9950027  72.2369995 128.8229980  78.7070007
  71.3130035 129.7460022  80.4280014  71.1650009 130.6510010  79.8010025
  72.2379990 129.8959961  81.0260010  70.1090012 129.6179962  81.3759995
  70.2600021 128.7220001  82.0149994  69.1829987 129.4499969  80.7850037
  69.9290009 130.8280029  82.3030014  69.7340012 131.7460022  81.7080002
  70.8860016 130.9680023  82.8489990  68.8300018 130.6430054  83.3570023
  68.9810028 129.6470032  83.8259964  67.8270035 130.6349945  82.8799973
  68.8809967 131.6940002  84.4720001  68.6839981 132.6990051  84.0400009
  69.9130020 131.7059937  84.8850021  67.9020004 131.4210052  85.6119995
  68.1100006 130.4270020  86.0619965  66.8570023 131.4259949  85.2330017
  67.9980011 132.1970062  86.4020004  69.1969986 130.5679932  72.8880005
  68.2910004 130.2500000  73.4459991  68.9209976 131.4589996  72.2850037
  70.2699966 130.9559937  73.9169998  69.8710022 131.8040009  74.5130005
  71.1790009 131.3150024  73.3889999  70.6520004 129.8390045  74.8980026
  71.0979996 128.9779968  74.3560028  69.7200012 129.4810028  75.3860016
  71.6200027 130.2969971  75.9990005  71.6119995 129.5279999  76.8010025
  71.2480011 131.2469940  76.4380035  73.0729980 130.4720001  75.5309982
  73.0989990 131.1430054  74.6460037  73.4670029 129.4790039  75.2239990
  73.9810028 131.0599976  76.6220016  73.9120026 130.4279938  77.5329971
  73.5950012 132.0670013  76.8889999  75.4570007 131.2079926  76.2080002
  75.9639969 131.8280029  76.9779968  75.5039978 131.7689972  75.2500000
  76.2490005 129.8939972  76.0719986  77.2620010 130.1210022  75.6760025
  75.7330017 129.2480011  75.3290024  76.4020004 129.0870056  77.3740005
  76.8249969 128.0919952  77.1169968  75.3949966 128.9049988  77.8059998
  77.3040009 129.7120056  78.4509964  76.9940033 130.7599945  78.6510010
  78.3420029 129.7330017  78.0559998  77.2969971 128.9199982  79.7710037
  78.2160034 129.1670074  80.3440018  77.3249969 127.8339996  79.5370026
  76.0889969 129.2070007  80.6780014  75.1470032 129.0460052  80.1110001
  76.1309967 130.2749939  80.9820023  76.0579987 128.3309937  81.9400024
  77.0920029 128.2449951  82.3349991  75.7310028 127.3089981  81.6539993
  75.1620026 128.8580017  83.0569992  75.5090027 129.8619995  83.3809967
  75.2040024 128.1809998  83.9369965  74.1080017 128.9329987  82.7160034
 132.7859955  58.2130013  65.6039963 132.3690033  59.0079994  64.3789978
 133.0630035  58.7840004  63.5830002 132.4819946  60.0589981  64.5999985
 132.6199951  56.7500000  65.3539963 133.1929932  56.4370003  64.4940033
 132.9440002  56.1780014  66.2109985 131.5769958  56.5349998  65.1709976
 134.2149963  58.4920006  65.9430008 134.3659973  59.5429993  66.1439972
 134.5070038  57.9410019  66.8249969 134.8699951  58.2010002  65.1350021
 131.9369965  58.5849991  66.7730026 132.0410004  59.6339989  67.0080032
 132.1849976  57.9970016  67.6449966 130.9019928  58.4000015  66.5230026
 130.9290009  58.7999992  63.8330002 130.7740021  57.7150002  63.6469994
 130.8760071  59.3040009  62.8450012 128.6049957  58.5839996  65.0630035
 127.9700012  58.0649986  63.8129997 127.7559967  59.4840012  65.9000015
 129.9420013  59.3769989  64.6910019 129.1430054  57.3520012  65.9380035
 128.3159943  56.7140007  66.9229965 128.1109924  55.6689987  66.6060028
 127.3239975  57.2000008  67.0429993 128.9920044  56.6520004  68.3369980
 128.2350006  56.2750015  69.0579987 129.4850006  57.9379997  68.7529984
 128.5559998  58.8549995  68.9789963 127.3580017  58.6409988  69.1240005
 129.2570038  60.2220001  69.0270004 129.3719940  60.5489998  67.9710007
 130.2709961  60.0979996  69.4639969 130.1660004  55.6290016  68.3519974
 130.9920044  56.0110016  67.7139969 129.7940063  54.7010002  67.8690033
 130.5800018  55.3030014  69.6979980 131.6289978  55.9620018  70.1890030
 132.2870026  56.8050003  69.5979996 131.9290009  55.4150009  71.5930023
 132.6119995  54.5499992  71.4530029 130.9859924  55.0439987  72.0479965
 128.4709930  61.2960014  69.8050003 127.4029999  61.3050003  69.4970016
 128.9019928  62.2779999  69.5130005 128.6060028  61.1829987  71.3320007
 128.6410065  62.2130013  71.7470016 129.5679932  60.6899986  71.5910034
 127.4309998  60.4659996  72.0179977 127.3359985  59.4249992  71.6419983
 126.4990005  61.0099983  71.7529984 127.5540009  60.4459991  73.5510025
 126.5540009  60.2400017  73.9899979 127.8720016  61.4500008  73.9020004
 128.5390015  59.3829994  74.0619965 129.4730072  59.4580002  73.4649963
 128.1130066  58.3740005  73.8720016 128.9239960  59.5159988  75.5500031
 129.4909973  60.4630013  75.6760025 129.6309967  58.6899986  75.7819977
 127.7490005  59.4449997  76.4950027 126.9680023  58.7270012  76.2040024
 127.5810013  60.1660004  77.6210022 126.6770020  59.9949989  78.2239990
 128.5420074  61.1699982  78.2129974 127.9940033  61.8100014  78.9369965
 128.9539948  61.8510017  77.4380035 129.7160034  60.4949989  78.9499969
 130.4490051  60.1399994  78.1940002 129.3560028  59.6049995  79.5090027
 130.4340057  61.3880005  79.9789963 130.7350006  62.3530006  79.5179977
 131.3569946  60.8540001  80.2880020 129.5780029  61.6409988  81.2320023
 129.1040039  60.6809998  81.5270004 128.7590027  62.3440018  80.9690018
 130.3260040  62.1839981  82.4570007 129.5610046  62.4300003  83.2239990
 130.8509979  63.1279984  82.1940002 131.3079987  61.1720009  83.0680008
 132.2100067  61.1069984  82.4229965 130.8179932  60.1749992  83.0609970
 131.7290039  61.4760017  84.5149994 132.4250031  60.6769981  84.8450012
 130.8260040  61.4150009  85.1589966 132.3950043  62.8380013  84.7180023
 133.2949982  62.9259987  84.0729980 132.7030029  62.9690018  85.7770004
 131.6929932  63.6570015  84.4540024 132.5959930  56.4399986  72.5400009
 133.4299927  56.9640007  72.0260010 133.0350037  55.8860016  73.3970032
 131.6000061  57.4620018  73.1029968 130.7790070  56.9350014  73.6340027
 131.1439972  58.0120010  72.2519989 132.2350006  58.4920006  74.0530014
 131.4909973  59.2970009  74.2330017 133.1119995  58.9589996  73.5569992
 132.6560059  57.9430008  75.4300003 133.5260010  57.2630005  75.3030014
 131.8209991  57.3559990  75.8679962 133.0240021  59.0849991  76.3939972
 132.1100006  59.6790009  76.6090012 133.7380066  59.7540016  75.8679962
 133.6750031  58.6619987  77.7239990 134.0359955  59.5919991  78.2139969
 134.5630035  58.0219994  77.5289993 132.7380066  57.9570007  78.7200012
 132.5700073  56.9049988  78.4049988 131.7539978  58.4739990  78.7040024
 133.2769928  58.0050011  80.1630020 133.3619995  59.0730019  80.4580002
 134.2960052  57.5639992  80.1910019 132.3990021  57.3019981  81.2139969
 132.8329926  57.5029984  82.2170029 132.4199982  56.2029991  81.0500031
 130.9400024  57.7789993  81.2119980 130.4400024  57.3670006  80.3099976
 130.9259949  58.8860016  81.1220016 130.1580048  57.4119987  82.4820023
 130.5780029  57.9920006  83.3310013 130.3070068  56.3330002  82.7020035
 128.6490021  57.6790009  82.3949966 128.4720001  58.7330017  82.0910034
 128.2039948  57.5369987  83.4029999 127.9300003  56.7420006  81.4179993
 128.0650024  55.7000008  81.7799988 128.4219971  56.8149986  80.4250031
 126.4430008  57.0139999  81.2249985 125.9739990  56.1730003  80.6729965
 126.3030014  57.9469986  80.6389999 125.9329987  57.1269989  82.2060013
  44.3160019 108.1279984  67.7839966  44.0229988 109.0630035  66.6320038
  44.0880013 110.0770035  66.9970016  43.0079994 108.9089966  66.2979965
  44.3310013 106.7020035  67.3430023  45.0740013 106.5790024  66.5699997
  44.5909996 106.0530014  68.1660004  43.3730011 106.3889999  66.9540024
  45.6720009 108.4479980  68.3050003  46.3559990 108.4820023  67.4700012
  45.6829987 109.4280014  68.7590027  45.9990005 107.7070007  69.0199966
  43.3380013 108.3020020  68.8970032  42.3269997 108.1019974  68.5739975
  43.3790016 109.3099976  69.2819977  43.5730019 107.6250000  69.7050018
  44.9630013 108.9670029  65.4029999  44.5079994 109.5820007  64.5979996
  44.9939995 107.9130020  65.0540009  47.3930016 109.4079971  64.5589981
  46.8260002 109.9520035  63.2840004  47.9760017 108.0350037  64.4710007
  46.2739983 109.4479980  65.7070007  48.5359993 110.4209976  65.0500031
  48.4729996 111.1269989  66.2910004  47.4379997 111.2399979  66.6790009
  48.8629990 112.1539993  66.1309967  49.3540001 110.4589996  67.3860016
  50.3549995 110.3119965  66.9270020  48.7719994 109.1930008  67.7529984
  49.6010017 108.3349991  68.3300018  50.7859993 108.5309982  68.5599976
  48.8320007 107.0339966  68.6019974  48.5060005 106.6169968  67.6259995
  47.9350014 107.2890015  69.2060013  49.5470009 111.4029999  68.6159973
  49.9939995 112.3450012  68.2340012  50.2960014 110.9690018  69.3130035
  48.2910004 111.7239990  69.2559967  47.9300003 110.8700027  70.2200012
  48.6489983 110.0130005  70.7139969  46.4739990 111.1340027  70.6080017
  45.8610001 111.1790009  69.6819992  46.4259987 112.1179962  71.1230011
  49.6809998 106.0070038  69.3679962  49.9239998 106.4209976  70.3700027
  50.6370010 105.8669968  68.8199997  49.0200005 104.6289978  69.5490036
  49.6769981 104.0169983  70.2030029  48.9710007 104.1220016  68.5609970
  47.5989990 104.6340027  70.1510010  47.2980003 103.5810013  70.3349991
  46.8930016 105.0490036  69.3990021  47.4230003 105.4250031  71.4609985
  46.3820000 105.2779999  71.8229980  47.5470009 106.5059967  71.2379990
  48.3959999 105.0380020  72.5889969  49.4350014 105.2610016  72.2620010
  48.3260002 103.9420013  72.7570038  48.1310005 105.7549973  73.9309998
  48.9010010 105.4089966  74.6539993  47.1500015 105.4029999  74.3170013
  48.1090012 107.2620010  73.8190002  47.2890015 107.6500015  73.1959991
  48.9620018 108.1480026  74.3649979  48.7949982 109.2190018  74.1750031
  50.1520004 107.8369980  75.2379990  51.0349998 107.6589966  74.5869980
  50.0009995 106.9089966  75.8300018  50.5509987 108.9700012  76.2050018
  50.7229996 109.9100037  75.6399994  51.5250015 108.6800003  76.6549988
  49.5810013 109.2440033  77.3700027  49.3450012 108.2870026  77.8830032
  48.6320000 109.6699982  76.9789963  50.2089996 110.2119980  78.3830032
  50.5369987 111.1250000  77.8410034  51.1250000 109.7340012  78.7919998
  49.3289986 110.6539993  79.5599976  48.9420013 109.7639999  80.1009979
  48.4630013 111.2259979  79.1650009  50.1049995 111.5449982  80.5439987
  50.5859985 112.3619995  79.9649963  50.9160004 110.9420013  81.0059967
  49.2630005 112.1940002  81.6460037  48.7120018 111.4110031  82.2099991
  48.5060005 112.8470001  81.1610031  50.0670013 113.0449982  82.6250000
  50.5820007 113.8649979  82.0810013  50.8359985 112.4290009  83.1380005
  49.3969994 113.4950027  83.3889999  45.9630013 110.0210037  71.5400009
  46.6049995 109.9960022  72.4459991  46.0649986 109.0370026  71.0339966
  44.5029984 110.1959991  71.9729996  43.8639984 110.2720032  71.0670013
  44.3950005 111.1449966  72.5400009  43.9990005 109.0299988  72.8420029
  44.1599998 108.0770035  72.2929993  42.9070015 109.1439972  73.0100021
  44.6889992 108.9489975  74.2119980  44.4679985 109.8750000  74.7839966
  45.7890015 108.9059982  74.0630035  44.2900009 107.7279968  75.0520020
  44.4799995 106.8069992  74.4609985  43.2050018 107.7779999  75.2839966
  45.0890007 107.6490021  76.3610001  44.8849983 108.5670013  76.9520035
  46.1730003 107.6429977  76.1159973  44.7760010 106.4120026  77.2190018
  44.8839989 105.5019989  76.5920029  43.7190018 106.4729996  77.5569992
  45.6899986 106.2669983  78.4509964  46.7319984 106.1029968  78.1009979
  45.3779984 105.3679962  79.0230026  45.6790009 107.4899979  79.3840027
  44.6349983 107.7190018  79.6890030  46.0540009 108.3639984  78.8099976
  46.5660019 107.3489990  80.6330032  46.6650009 108.3519974  81.1009979
  47.5820007 107.0380020  80.3099976  46.0620003 106.3590012  81.7020035
  46.8100014 106.3399963  82.5230026  46.0190010 105.3410034  81.2590027
  44.6930008 106.6849976  82.3280029  44.4169998 105.8619995  83.0210037
  43.9210014 106.7269974  81.5299988  44.6669998 108.0049973  83.1090012
  44.9360008 108.8310013  82.4160004  45.4459991 107.9710007  83.9000015
  43.3180008 108.3300018  83.7480011  43.3650017 109.3180008  84.2539978
  43.0449982 107.5569992  84.4980011  42.5229988 108.3659973  82.9720001
 134.5359955  73.8170013  65.0859985 135.3970032  75.0159988  65.4319992
 134.8029938  75.9110031  65.3150024 136.2059937  75.0699997  64.7180023
 133.3609924  73.7350006  66.0059967 132.7429962  74.6159973  65.9169998
 132.7519989  72.8730011  65.7730026 133.6940002  73.6529999  67.0299988
 134.0410004  73.9280014  63.6800003 133.4409943  73.0680008  63.4220009
 133.4309998  74.8109970  63.5540009 134.8670044  73.9810028  62.9860001
 135.3450012  72.5690002  65.2080002 134.7299957  71.6900024  65.0889969
 135.8269958  72.5680008  66.1750031 136.1269989  72.5589981  64.4629974
 136.0659943  75.0289993  66.8310013 135.3110046  74.7539978  67.5989990
 136.3789978  76.0690002  67.0650024 138.5480042  74.5429993  66.1910019
 138.3020020  74.8830032  64.7559967 139.5599976  73.4710007  66.4390030
 137.1699982  74.1190033  66.9000015 138.9850006  75.8679962  66.9789963
 140.1040039  76.6409988  66.5130005 139.7550049  77.4309998  65.8130035
 140.8459930  76.0159988  65.9700012 140.9089966  77.3410034  67.6640015
 141.8269958  77.7350006  67.1790009 141.2630005  76.3629990  68.6669998
 142.2610016  76.6880035  69.4720001 142.8990021  77.7310028  69.4349976
 142.5850067  75.4950027  70.3830032 143.6049957  75.6470032  70.7959976
 142.6020050  74.5869980  69.7440033 140.1609955  78.5920029  68.2480011
 139.9570007  79.2559967  67.3809967 140.8359985  79.1679993  68.9160004
 138.8970032  78.2699966  68.8669968 138.9420013  78.0289993  70.1719971
 139.9170074  78.1839981  70.8949966 137.5720062  77.5360031  70.6380005
 137.1309967  76.9010010  69.8399963 136.9230042  78.4250031  70.7910004
 141.5740051  75.2910004  71.5350037 140.5370026  75.3909988  71.1490021
 141.7230072  76.0749969  72.3079987 141.7070007  73.8949966  72.1630020
 142.7579956  73.7190018  72.4759979 141.4649963  73.1480026  71.3769989
 140.7749939  73.6520004  73.3619995 140.6990051  72.5540009  73.5139999
 139.7570038  74.0299988  73.1289978 141.2790070  74.2870026  74.6689987
 141.3370056  75.3870010  74.5299988 142.3099976  73.9260025  74.8710022
 140.3930054  74.0009995  75.8990021 139.3860016  74.4300003  75.7070007
 140.8139954  74.5360031  76.7770004 140.2039948  72.5100021  76.2669983
 139.6999969  72.0029984  75.4169998 139.4880066  72.4810028  77.1159973
 141.4880066  71.7880020  76.6050034 142.2760010  71.8919983  75.8450012
 141.7570038  71.0510025  77.7030029 142.7550049  70.5989990  77.7919998
 140.8419952  70.7529984  78.8679962 140.7149963  69.6539993  78.9700012
 139.8240051  71.1770020  78.7289963 141.4049988  71.2949982  80.1969986
 141.4270020  72.4049988  80.1589966 142.4479980  70.9359970  80.3270035
 140.5850067  70.8590012  81.4240036 140.6119995  69.7519989  81.5059967
 139.5260010  71.1549988  81.2689972 141.0740051  71.4769974  82.7460022
 140.4179993  71.1230011  83.5699997 140.9559937  72.5800018  82.6790009
 142.5370026  71.1480026  83.0950012 143.1970062  71.6119995  82.3300018
 142.6829987  70.0479965  83.0459976 142.9830017  71.6500015  84.4800034
 144.0509949  71.3799973  84.6289978 142.3890076  71.1269989  85.2610016
 142.8090057  73.1640015  84.6650009 141.7250061  73.3960037  84.5869980
 143.3260040  73.6959991  83.8379974 143.3139954  73.6959991  86.0059967
 142.8630066  73.1159973  86.8389969 143.0149994  74.7590027  86.1320038
 144.4230042  73.6370010  86.0589981 137.6889954  76.7350006  71.9440002
 138.1130066  77.3789978  72.7440033 138.3880005  75.8860016  71.7870026
 136.3489990  76.1750031  72.4270020 135.8679962  75.5950012  71.6110001
 135.6750031  77.0169983  72.6940002 136.5269928  75.2669983  73.6480026
 137.0520020  75.8499985  74.4349976 137.1770020  74.4089966  73.3750000
 135.2019958  74.7369995  74.2119980 134.6309967  74.2429962  73.3980026
 134.5970001  75.5940018  74.5800018 135.3970032  73.7300034  75.3560028
 135.9730072  72.8600006  74.9759979 134.4029999  73.3619995  75.6880035
 136.1139984  74.3150024  76.5759964 135.4850006  75.1220016  77.0090027
 137.0749969  74.7740021  76.2590027 136.4270020  73.2740021  77.6589966
 137.2149963  72.5899963  77.2779999 135.5130005  72.6689987  77.8460007
 136.8800049  73.9029999  78.9879990 137.1920013  73.0989990  79.6880035
 135.9920044  74.4100037  79.4229965 138.0099945  74.9410019  78.8470001
 137.6799927  75.7229996  78.1299973 138.9109955  74.4489975  78.4219971
 138.3840027  75.6790009  80.1449966 139.0879974  76.4970016  79.8809967
 138.9140015  74.9889984  80.8359985 137.1710052  76.2819977  80.8730011
 136.6159973  75.4540024  81.3629990 136.4889984  76.7419968  80.1259995
 137.5299988  77.3280029  81.9339981 137.8190002  78.2760010  81.4329987
 138.4120026  76.9660034  82.5049973 136.4060059  77.6070023  82.9390030
 136.1060028  76.6470032  83.4110031 135.5169983  78.0009995  82.4020004
 136.8130035  78.5940018  84.0319977 135.9720001  78.7630005  84.7369995
 137.0989990  79.5699997  83.5839996 137.6790009  78.1989975  84.6060028
 112.3259964  52.9129982  63.6139984 111.8750000  52.5270004  64.5530014
 111.7310028  52.5000000  62.7719994 114.3479996  51.3330002  64.3010025
 115.8330002  51.4830017  64.2399979 113.8119965  50.0320015  63.7999992
 113.6949997  52.5159988  63.4379997 113.8399963  51.5800018  65.8040009
 114.4570007  50.9029999  66.9120026 115.4469986  50.4679985  66.6569977
 114.6380005  51.6380005  67.7259979 112.1380005  54.4659996  63.6150017
 112.6500015  54.8839989  62.7220001 110.7399979  54.7519989  63.4850006
 110.3150024  54.3769989  64.2590027 112.6890030  55.1889992  64.8870010
 112.3830032  54.5810013  65.7649994 112.1650009  56.1640015  64.9820023
 114.8109970  56.7830009  64.8259964 116.2949982  56.6080017  64.8280029
 114.2549973  57.5429993  63.6640015 114.1210022  55.3359985  64.8870010
 114.3529968  57.5139999  66.1809998 114.7910004  57.0550003  67.4720001
 114.9049988  57.9269981  68.1500015 115.7839966  56.5579987  67.4300003
 113.7900009  56.0680008  68.1539993 113.6880035  55.2140007  67.4509964
 112.5120010  56.7150002  68.3730011 111.5169983  55.8470001  68.5210037
 111.5950012  54.6389999  68.3550034 110.2229996  56.5660019  68.9089966
 109.3960037  56.0779991  68.3489990 110.2679977  57.6360016  68.6149979
 114.3710022  55.4669991  69.4840012 115.2740021  54.8800011  69.2119980
 113.6129990  54.7550011  69.8769989 114.7369995  56.4930000  70.4390030
 114.5830002  56.1710014  71.7310028 114.1439972  55.1090012  72.1439972
 115.0940018  57.3419991  72.5820007 114.5270004  58.2470016  72.2740021
 116.1660004  57.5060005  72.3430023 113.5869980  49.7509995  67.5210037
 113.3479996  49.0260010  66.7139969 112.3980026  50.2789993  68.1389999
 111.3389969  50.4339981  67.3560028 111.2009964  49.9580002  66.2369995
 110.2580032  51.2709999  68.0660019 109.3099976  50.6930008  68.0179977
 110.1320038  52.2080002  67.4840012 114.3960037  48.9659996  68.6009979
 113.7440033  48.1290016  68.9319992 115.2919998  48.5250015  68.1139984
 114.8089981  49.8409996  69.6780014 114.6100006  49.3969994  70.9199982
 114.2939987  48.2550011  71.2200012 114.8229980  50.5690002  71.8919983
 114.0820007  51.3590012  71.6429977 115.8420029  50.9690018  71.6999969
 109.9700012  56.4099998  70.4329987 110.2020035  55.3660011  70.7340012
 108.8919983  56.5750008  70.6429977 110.7890015  57.3849983  71.2809982
 111.8359985  57.4239998  70.9130020 110.8160019  56.9860001  72.3180008
 110.1839981  58.7849998  71.3209991 109.1979980  58.7140007  71.8290024
 109.9960022  59.1570015  70.2910004 111.0230026  59.8489990  72.0650024
 110.3600006  60.7190018  72.2639999 111.8529968  60.2050018  71.4169998
 111.6080017  59.3670006  73.4069977 112.5100021  58.7490005  73.2099991
 110.8539963  58.7099991  73.8909988 111.9280014  60.5110016  74.3659973
 110.9550018  60.9370003  74.6930008 112.4860001  61.3129997  73.8359985
 112.7249985  60.1180000  75.6200027 112.7149963  60.9690018  76.3339996
 113.7809982  59.9379997  75.3280029 112.2279968  58.8440018  76.3550034
 112.8820038  58.7080002  77.2429962 112.4290009  57.9819984  75.6829987
 110.7770004  58.8429985  76.7580032 110.0660019  59.2239990  76.0100021
 110.3399963  58.3230019  77.9100037 111.0640030  57.8600006  78.5970001
 108.9049988  58.2140007  78.3310013 108.2730026  59.0000000  77.8659973
 108.8119965  58.3330002  79.4319992 108.3010025  56.8540001  77.9240036
 108.9609985  56.0139999  78.2289963 108.2399979  56.8409996  76.8140030
 106.8929977  56.6170006  78.4940033 106.3509979  55.9300003  77.8109970
 106.3550034  57.5890007  78.5029984 106.8939972  56.0159988  79.9029999
 107.5019989  56.6660004  80.5690002 107.3779984  55.0169983  79.8789978
 105.4919968  55.8849983  80.5130005 104.8720016  55.2270012  79.8679962
 105.0159988  56.8880005  80.5240021 105.4830017  55.3339996  81.9390030
 106.0739975  55.9860001  82.6169968 105.9140015  54.3100014  81.9680023
 104.4430008  55.2789993  82.3259964 114.9270020  57.1440010  74.1090012
 113.8730011  56.9049988  74.3679962 115.1650009  58.1189995  74.5849991
 115.8700027  56.0929985  74.7210007 116.7519989  55.9790001  74.0550003
 115.3509979  55.1110001  74.7580032 116.4029999  56.4690018  76.1179962
 117.0000000  57.3979988  75.9960022 117.0899963  55.6749992  76.4810028
 115.3440018  56.7570000  77.2020035 114.6230011  57.5029984  76.8050003
 115.8560028  57.2190018  78.0729980 114.5699997  55.5239983  77.6989975
 115.2679977  54.8260002  78.2109985 114.1460037  54.9970016  76.8170013
 113.4110031  55.8580017  78.6529999 112.8130035  54.9350014  78.8079987
 112.7480011  56.6040001  78.1630020 113.8320007  56.3880005  80.0329971
 114.3919983  57.3400002  79.9189987 114.5120010  55.6430016  80.5009995
 112.6299973  56.6020012  80.9660034 112.0579987  55.6500015  80.9980011
 111.9589996  57.3740005  80.5329971 112.9929962  56.9869995  82.4110031
 113.4250031  58.0110016  82.4110031 113.7659988  56.2869987  82.7929993
 111.7770004  56.9519997  83.3479996 111.4270020  55.9029999  83.4560013
 110.9580002  57.5239983  82.8610001 111.9769974  57.5489998  84.7500000
 110.9570007  57.7130013  85.1579971 112.4599991  58.5480003  84.6940002
 112.7170029  56.6570015  85.7559967 113.8059998  56.6949997  85.5400009
 112.3759995  55.6090012  85.6139984 112.4489975  57.0139999  87.2310028
 112.7360001  58.0740013  87.4020004 113.1070023  56.3790016  87.8619995
 110.9990005  56.8139992  87.6819992 110.6549988  55.7879982  87.4290009
 110.3259964  57.5379982  87.1740036 110.9010010  56.9599991  88.7789993
 110.5879974  51.6119995  69.5370026 111.5329971  52.1940002  69.5810013
 110.7440033  50.6679993  70.1019974 109.4889984  52.4230003  70.2340012
 108.5220032  51.8860016  70.1350021 109.3830032  53.4099998  69.7350006
 109.7880020  52.6300011  71.7259979 110.7369995  53.1959991  71.8389969
 109.9329987  51.6339989  72.1969986 108.6650009  53.3569984  72.4759979
 107.6969986  52.8720016  72.2239990 108.6119995  54.4129982  72.1350021
 108.8190002  53.3219986  74.0049973 108.7910004  52.2589989  74.3280029
 107.9440002  53.8339996  74.4589996 110.1019974  53.9910011  74.5329971
 110.1869965  54.9760017  74.0270004 110.9929962  53.3889999  74.2539978
 110.1080017  54.2589989  76.0530014 109.1279984  54.6879997  76.3519974
 110.8759995  55.0379982  76.2509995 110.4550018  53.0579987  76.9639969
 110.5680008  53.4560013  77.9940033 111.4580002  52.6839981  76.6650009
 109.4589996  51.9210014  76.9339981 109.5530014  51.2700005  76.0520020
 108.4860001  51.6450005  77.8259964 107.8509979  50.7649994  77.6429977
 108.1569977  52.4059982  79.0889969 107.1579971  52.8820000  78.9860001
 108.8789978  53.2319984  79.2669983 108.1320038  51.5299988  80.3610001
 107.2979965  50.7980003  80.3010025 107.9280014  52.2039986  81.2200012
 109.4489975  50.7840004  80.6309967 110.2770004  51.5159988  80.5159988
 109.5979996  49.9869995  79.8720016 109.5459976  50.1850014  82.0410004
 108.7409973  49.4339981  82.1940002 109.3889999  51.0060005  82.7730026
 110.9130020  49.5480003  82.3290024 111.6949997  50.2809982  82.0390015
 111.0459976  48.6489983  81.6900024 111.1320038  49.1710014  83.7910004
 110.4270020  48.3699989  84.0979996 110.9649963  50.0499992  84.4499969
 112.1689987  48.8040009  83.9459991 114.7030029  50.1920013  73.3889999
 115.0999985  51.0429993  73.9830017 115.3310013  49.3050003  73.6200027
 113.2639999  49.9319992  73.8570023 112.8239975  49.1290016  73.2269974
 112.6490021  50.8460007  73.7089996 113.1610031  49.4830017  75.3270035
 113.8209991  48.6090012  75.5139999 112.1139984  49.1450005  75.4840012
 113.4359970  50.5849991  76.3669968 112.7419968  50.4189987  77.2190018
 113.1890030  51.5779991  75.9339981 114.8590012  50.6139984  76.9520035
 115.5869980  50.9169998  76.1699982 115.1309967  49.5940018  77.2990036
 114.9449997  51.5779991  78.1449966 114.2030029  51.2439995  78.9020004
 114.6409988  52.5950012  77.8190002 116.3170013  51.6650009  78.8310013
 117.0410004  52.1640015  78.1520004 116.6900024  50.6409988  79.0439987
 116.2229996  52.4389992  80.1549988 115.5250015  51.8899994  80.8239975
 115.7689972  53.4339981  79.9589996 117.5510025  52.6360016  80.9010010
 118.1849976  53.3499985  80.3330002 118.0910034  51.6650009  80.9420013
 117.3679962  53.1469994  82.3460007 118.3679962  53.2999992  82.8069992
 116.8539963  52.3489990  82.9240036 116.5339966  54.4370003  82.4929962
 116.3280029  54.6129990  83.5699997 115.5500031  54.2779999  82.0019989
 117.1689987  55.7050018  81.8909988 116.4020004  56.5089989  81.9079971
 117.4179993  55.5089989  80.8259964 118.4209976  56.2260017  82.6200027
 118.8199997  57.0849991  82.0400009 119.2009964  55.4350014  82.6149979
 118.1839981  56.6860008  84.0609970 117.8929977  55.8300018  84.7070007
 117.3759995  57.4469986  84.0970001 119.1080017  57.1419983  84.4759979
  76.8499985  56.7789993  64.1470032  77.6940002  55.5289993  63.9609985
  78.3529968  55.6889992  63.1209984  77.0400009  54.7130013  63.6910019
  75.8820038  56.9710007  63.0239983  75.2040024  56.1339989  62.9449997
  75.2870026  57.8569984  63.1920013  76.3939972  57.0870018  62.0810013
  76.1070023  56.6910019  65.4380035  75.4509964  55.8330002  65.4560013
  76.8349991  56.5890007  66.2289963  75.5240021  57.5839996  65.6100006
  77.7470016  57.9700012  64.2330017  78.2760010  58.1300011  63.3059998
  78.4729996  57.7700005  65.0070038  77.1890030  58.8600006  64.4860001
  78.5640030  55.0559998  65.1689987  79.1190033  54.1510010  64.8440018
  77.8759995  54.7299995  65.9779968  79.5940018  56.4990005  67.1399994
  78.2220001  56.6720009  67.7149963  80.4800034  57.7019997  67.2109985
  79.5059967  56.0449982  65.5970001  80.3040009  55.2519989  67.8759995
  81.6439972  54.8549995  67.5339966  82.0790024  55.4560013  66.7070007
  81.6309967  53.7999992  67.1859970  82.6679993  54.9249992  68.7269974
  83.6190033  54.5279999  68.3109970  82.2490005  54.0680008  69.8150024
  83.1110001  53.9850006  70.8219986  84.2779999  54.3530006  70.8099976
  82.4199982  53.3720016  72.0449982  83.1230011  52.6370010  72.4909973
  81.4929962  52.8429985  71.7389984  82.9810028  56.4020004  69.1719971
  83.0510025  57.0029984  68.2409973  83.9820023  56.4239998  69.6539993
  81.9820023  56.9490013  70.0619965  82.2259979  58.2150002  70.4069977
  83.2099991  58.8619995  70.0790024  81.0940018  58.7369995  71.3010025
  80.1549988  58.2179985  71.0130005  80.9649963  59.8219986  71.0970001
  82.1039963  54.4949989  73.0490036  81.3740005  55.1969986  72.5920029
  83.0329971  55.0699997  73.2509995  81.5500031  54.0099983  74.3949966
  80.5719986  53.5070000  74.2419968  81.3740005  54.9059982  75.0270004
  82.4909973  53.0709991  75.1660004  83.5360031  53.4319992  75.0540009
  82.4390030  52.0530014  74.7220001  82.1930008  52.9869995  76.6729965
  82.4349976  53.9700012  77.1309967  82.8730011  52.2319984  77.1220016
  80.7450027  52.6100006  77.0309982  80.4779968  51.6860008  76.4739990
  80.0569992  53.4169998  76.6979980  80.5299988  52.3330002  78.5350037
  81.2009964  51.4910011  78.8109970  79.4909973  51.9659996  78.6750031
  80.7620010  53.5449982  79.4069977  80.1679993  54.4300003  79.1340027
  81.6340027  53.6570015  80.4280014  81.6959991  54.6160011  80.9629974
  82.5469971  52.5859985  80.9779968  83.5709991  52.7389984  80.5749969
  82.2249985  51.5670013  80.6729965  82.6689987  52.6129990  82.5159988
  82.9919968  53.6360016  82.8040009  83.4639969  51.9080009  82.8379974
  81.3909988  52.2989998  83.3089981  81.2200012  51.2019997  83.3509979
  80.5339966  52.7529984  82.7669983  81.4329987  52.9029999  84.7229996
  81.7699966  53.9550018  84.6090012  82.1999969  52.3800011  85.3339996
  80.0970001  52.9420013  85.4860001  80.2580032  53.5200005  86.4209976
  79.8180008  51.9049988  85.7710037  78.9270020  53.5680008  84.7020035
  78.0319977  53.6489983  85.3560028  78.6750031  52.8629990  83.8820038
  79.2229996  54.9280014  84.0540009  80.1539993  54.8569984  83.4530029
  79.4169998  55.6759987  84.8519974  78.1200027  55.4469986  83.1389999
  78.4140015  56.4109993  82.6719971  77.1920013  55.6199989  83.7249985
  77.9010010  54.7150002  82.3320007  81.3909988  58.5050011  72.7979965
  81.7440033  59.4550018  73.2549973  82.2030029  57.7579994  72.9209976
  80.1709976  57.9710007  73.5640030  79.8870010  56.9920006  73.1230011
  79.3119965  58.6640015  73.4390030  80.4410019  57.7729988  75.0630035
  80.5199966  58.7659988  75.5559998  81.4169998  57.2570000  75.1880035
  79.3659973  56.9290009  75.7689972  79.3720016  55.9179993  75.3089981
  78.3600006  57.3689995  75.6009979  79.6200027  56.7779999  77.2770004
  80.7139969  56.7039986  77.4560013  79.1630020  55.8279991  77.6279984
  79.0260010  57.9249992  78.1070023  77.9199982  57.8899994  78.0000000
  79.3700027  58.8989983  77.6999969  79.3799973  57.8569984  79.6019974
  79.2559967  56.8190002  79.9779968  78.6559982  58.4980011  80.1490021
  80.7959976  58.3699989  79.9219971  80.9560013  59.2999992  79.3349991
  81.5540009  57.6279984  79.5920029  81.0000000  58.7159996  81.4059982
  80.1039963  59.2779999  81.7470016  81.8779984  59.3889999  81.5080032
  81.2170029  57.4930000  82.3079987  82.1630020  56.9949989  82.0070038
  80.3970032  56.7669983  82.1240005  81.2829971  57.7799988  83.8209991
  82.1800003  58.3959999  84.0419998  81.4250031  56.8040009  84.3320007
  80.0479965  58.4799995  84.4169998  79.1520004  57.8600006  84.1979980
  79.9160004  59.4620018  83.9140015  80.1129990  58.7369995  85.9329987
  79.1800003  59.2599983  86.2320023  80.9530029  59.4379997  86.1240005
  80.2939987  57.4939995  86.8079987  81.2350006  56.9659996  86.5449982
  79.4449997  56.7919998  86.6620026  80.3379974  57.7770004  87.8820038
 109.4150009 111.6009979  65.0070038 110.0680008 111.4459991  66.3679962
 109.6179962 110.5930023  66.8539963 109.8389969 112.3219986  66.9560013
 107.9410019 111.8040009  65.1679993 107.4950027 110.9690018  65.6869965
 107.7300034 112.7060013  65.7239990 107.4619980 111.8889999  64.2040024
 109.9869995 112.7679977  64.2669983 109.8479996 113.6829987  64.8229980
 111.0449982 112.6210022  64.1090012 109.5110016 112.8799973  63.3040009
 109.6429977 110.3580017  64.2149963 109.2590027 110.4479980  63.2099991
 109.1740036 109.5179977  64.7060013 110.7040024 110.1559982  64.1890030
 111.5999985 111.1989975  66.4169998 111.9509964 111.4199982  67.4469986
 112.1100006 111.9300003  65.7529984 111.6139984 108.6480026  67.0220032
 112.2910004 107.4199982  66.4950027 110.1330032 108.5439987  67.1999969
 111.9629974 109.8700027  66.0270004 112.2760010 109.0490036  68.4369965
 113.7050018 109.1630020  68.5309982 114.1190033 109.7900009  67.7129974
 114.1679993 108.1559982  68.4570007 114.2149963 109.7900009  69.8830032
 115.3150024 109.6419983  69.8590012 113.6650009 109.0869980  71.0250015
 114.3300018 109.2910004  72.1679993 115.3720016 109.9260025  72.2760010
 113.6399994 108.4940033  73.2880020 113.9550018 107.4339981  73.1900024
 112.5380020 108.5569992  73.1559982 114.0029984 111.3479996  69.9430008
 114.5080032 111.7600021  69.0429993 114.5530014 111.7679977  70.8130035
 112.6149979 111.7519989  69.9110031 112.0250015 111.8499985  71.1050034
 112.6050034 111.8320007  72.1809998 110.5179977 112.0729980  70.9089966
 110.1809998 111.5210037  70.0070038 110.3659973 113.1610031  70.7419968
 114.0279999 109.0090027  74.6819992 115.1309967 109.0989990  74.7819977
 113.6790009 108.2720032  75.4359970 113.3420029 110.3389969  74.9869995
 112.2710037 110.2180023  74.7160034 113.7669983 111.1350021  74.3389969
 113.4400024 110.7779999  76.4520035 114.4960022 111.0260010  76.6920013
 113.1409988 109.9280014  77.1019974 112.5410004 111.9769974  76.7939987
 112.8619995 112.8639984  76.2060013 112.6790009 112.2109985  77.8710022
 111.0410004 111.7269974  76.5660019 110.7770004 110.7959976  77.1129990
 110.8330002 111.5550003  75.4879990 110.1650009 112.8809967  77.0800018
 110.3820038 113.7969971  76.4909973 110.5080032 113.0899963  78.1159973
 108.6819992 112.5910034  77.0830002 108.1169968 112.9739990  76.2200012
 108.0279999 111.9359970  78.0630035 106.9400024 111.7949982  77.9879990
 108.6900024 111.3300018  79.2789993 109.6999969 110.9580002  79.0029984
 108.1259995 110.4400024  79.6309967 108.9120026 112.2939987  80.4589996
 107.9609985 112.4290009  81.0159988 109.2330017 113.2860031  80.0749969
 110.0260010 111.8000031  81.3949966 110.9520035 111.7180023  80.7860031
 109.7870026 110.7809982  81.7669983 110.3399963 112.7080002  82.5940018
 110.4909973 113.7580032  82.2639999 111.3069992 112.3519974  83.0090027
 109.3040009 112.6579971  83.7210007 108.5520020 111.8750000  83.4860001
 108.7750015 113.6340027  83.7580032 109.8889999 112.3629990  85.1080017
 110.6510010 113.1380005  85.3369980 110.4059982 111.3799973  85.0910034
 108.8450012 112.3730011  86.2289963 108.0419998 111.6460037  85.9820023
 108.3840027 113.3830032  86.2480011 109.4100037 112.0579987  87.6129990
 110.2389984 112.7580032  87.8499985 109.8099976 111.0220032  87.6520004
 108.6220016 112.1660004  88.3889999 109.7080002 111.6190033  72.1399994
 108.6699982 112.0029984  72.0500031 110.1419983 112.0569992  73.0650024
 109.6409988 110.0920029  72.2829971 110.6750031 109.6839981  72.2720032
 109.0950012 109.6630020  71.4169998 108.9680023 109.6470032  73.5889969
 107.9400024 110.0650024  73.6449966 109.5540009 110.0790024  74.4290009
 108.9039993 108.1200027  73.7580032 109.9199982 107.7030029  73.5910034
 108.2310028 107.6959991  72.9820023 108.4189987 107.6559982  75.1429977
 108.3929977 106.5459976  75.1470032 107.3830032 108.0159988  75.3199997
 109.3199997 108.1240005  76.2949982 109.2269974 109.2229996  76.4300003
 110.3700027 107.9120026  75.9980011 109.0339966 107.4219971  77.6320038
 109.1409988 106.3300018  77.4580002 107.9840012 107.6129990  77.9400024
 109.9869995 107.8000031  78.7789993 109.8300018 107.0869980  79.6169968
 109.7379990 108.8180008  79.1480026 111.4649963 107.7829971  78.3679962
 111.6299973 108.6500015  77.6930008 111.6569977 106.8590012  77.7809982
 112.4860001 107.8410034  79.5139999 113.4950027 107.9189987  79.0559998
 112.4479980 106.8830032  80.0770035 112.3040009 109.0049973  80.4990005
 111.3759995 108.8330002  81.0859985 112.1669998 109.9509964  79.9319992
 113.5019989 109.1650009  81.4509964 114.3740005 109.5049973  80.8529968
 113.7610016 108.1770020  81.8880005 113.2689972 110.1620026  82.5940018
 112.8499985 111.1009979  82.1719971 114.2509995 110.4229965  83.0429993
 112.3550034 109.6510010  83.7080002 112.7659988 108.7210007  84.1559982
 111.3379974 109.4440002  83.3119965 112.2679977 110.4189987  84.5059967
 134.9559937  66.1210022  64.1039963 134.6660004  64.9580002  65.0350037
 135.2859955  64.1240005  64.7399979 133.6419983  64.6510010  64.8860016
 136.3719940  66.5729980  64.2600021 136.5789948  67.4179993  63.6199989
 136.5630035  66.8639984  65.2819977 137.0579987  65.7789993  64.0049973
 134.7409973  65.7160034  62.6800003 133.7220001  65.3960037  62.5200005
 134.9360046  66.5479965  62.0190010 135.4010010  64.9069977  62.4029999
 134.0359955  67.2509995  64.4250031 134.0700073  67.4169998  65.4909973
 133.0169983  66.9919968  64.1760025 134.3110046  68.1510010  63.8950005
 134.8630066  65.1979980  66.5589981 135.8919983  65.5810013  66.7259979
 134.7850037  64.2070007  67.0559998 134.0260010  66.5609970  68.6289978
 134.3899994  65.3830032  69.4769974 132.7729950  67.2720032  69.0279999
 133.8789978  66.0920029  67.0950012 135.2460022  67.6149979  68.6330032
 135.3589935  68.5459976  67.5439987 134.4120026  69.1029968  67.3809967
 135.5829926  67.9960022  66.6050034 136.5070038  69.6149979  67.7170029
 136.7610016  69.9759979  66.6969986 137.6999969  69.0989990  68.3460007
 138.2530060  68.0469971  67.7710037 138.0299988  67.6449966  66.6370010
 139.3200073  67.4369965  68.6949997 140.0610046  68.2229996  68.9540024
 139.8379974  66.6579971  68.0950012 136.0279999  70.8830032  68.4990005
 135.1940002  71.3529968  67.9349976 136.8650055  71.6139984  68.4830017
 135.6979980  70.5879974  69.8740005 134.4060059  70.4850006  70.1790009
 133.4720001  70.8059998  69.4570007 134.2890015  69.9349976  71.6050034
 135.1349945  70.3460007  72.1969986 134.4040070  68.8310013  71.5510025
 138.7469940  66.7770004  69.9739990 139.5059967  66.0630035  70.3600006
 137.8359985  66.1920013  69.7269974 138.4479980  67.7819977  71.0979996
 137.6439972  68.4759979  70.7699966 139.3609924  68.3889999  71.2809982
 138.0180054  67.1370010  72.4270020 137.9750061  67.9420013  73.1910019
 138.7870026  66.4039993  72.7500000 136.6439972  66.4469986  72.3629990
 136.6779938  65.6500015  71.5899963 135.8860016  67.1920013  72.0380020
 136.1860046  65.8190002  73.6920013 136.9539948  65.0879974  74.0250015
 135.2449951  65.2590027  73.5019989 135.9369965  66.8539963  74.8059998
 135.1999969  67.5970001  74.4349976 136.8829956  67.4140015  74.9729996
 135.4429932  66.2549973  76.1009979 134.3589935  66.0770035  76.1510010
 136.1959991  65.9860001  77.1849976 135.7050018  65.6060028  78.0940018
 137.6909943  66.1740036  77.2949982 138.1779938  65.9380035  76.3249969
 138.1080017  65.4570007  78.0350037 138.1210022  67.6060028  77.6839981
 137.7619934  68.3099976  76.9029999 139.2310028  67.6539993  77.6839981
 137.6139984  68.1019974  79.0490036 136.5030060  68.0790024  79.0630035
 137.9250031  69.1620026  79.1679993 138.1450043  67.3089981  80.2509995
 139.2559967  67.3030014  80.2239990 137.7929993  66.2580032  80.1819992
 137.6779938  67.9010010  81.5869980 136.5670013  67.8909988  81.6090012
 138.0110016  68.9599991  81.6429977 138.1999969  67.1340027  82.8099976
 139.3099976  67.1839981  82.8239975 137.9080048  66.0680008  82.7060013
 137.6499939  67.6640015  84.1439972 138.0180054  67.0090027  84.9619980
 136.5420074  67.5749969  84.1220016 138.0229950  69.1159973  84.4609985
 139.1260071  69.2429962  84.4670029 137.6239929  69.4130020  85.4550018
 137.5959930  69.8040009  83.6999969 132.9450073  70.2880020  72.2779999
 132.1219940  69.8020020  71.7119980 132.7799988  71.3860016  72.2399979
 132.8760071  69.8330002  73.7460022 133.1640015  68.7610016  73.8069992
 131.8280029  69.9199982  74.1039963 133.7830048  70.6579971  74.6740036
 133.4290009  71.7109985  74.6839981 134.8159943  70.6529999  74.2659988
 133.8739929  70.1289978  76.1129990 134.7160034  70.6419983  76.6259995
 134.1199951  69.0469971  76.0660019 132.6060028  70.3420029  76.9540024
 131.7420044  69.8750000  76.4349976 132.4029999  71.4319992  77.0380020
 132.7019958  69.7350006  78.3649979 131.7590027  69.9629974  78.9059982
 133.5399933  70.2020035  78.9260025 132.8899994  68.2109985  78.3300018
 133.9109955  67.9589996  77.9729996 132.1699982  67.8209991  77.5790024
 132.6230011  67.4899979  79.6579971 132.3849945  66.4329987  79.4140015
 131.7299957  67.9260025  80.1559982 133.8260040  67.4940033  80.6139984
 134.0610046  68.5419998  80.9000015 134.7089996  67.0879974  80.0749969
 133.6199951  66.6660004  81.8970032 132.8099976  67.1380005  82.4940033
 134.5540009  66.7210007  82.4950027 133.2570038  65.1809998  81.6849976
 132.2469940  65.1259995  81.2229996 133.1849976  64.6940002  82.6809998
 134.2299957  64.3720016  80.8010025 134.2230072  64.8119965  79.7809982
 133.8439941  63.3330002  80.7200012 135.6860046  64.3209991  81.3000031
 136.0670013  65.3619995  81.3740005 136.2969971  63.8009987  80.5309982
 135.8800049  63.6180000  82.6470032 136.9550018  63.6119995  82.9290009
 135.5200043  62.5680008  82.5940018 135.3110046  64.1439972  83.4440002
  61.9109993  47.9129982  67.5000000  62.1940002  48.6110001  66.1760025
  62.9249992  49.3870010  66.3509979  61.2919998  49.1080017  65.8519974
  63.1339989  47.1910019  67.9580002  63.9720001  47.8670006  68.0510025
  62.9700012  46.7200012  68.9160004  63.3919983  46.4239998  67.2419968
  61.5139999  48.9160004  68.5410004  60.6279984  49.4539986  68.2389984
  61.3030014  48.4300003  69.4820023  62.3019981  49.6360016  68.7080002
  60.8059998  46.9230003  67.3180008  61.0550003  46.2700005  66.4940033
  59.8860016  47.4239998  67.0569992  60.6440010  46.3370018  68.2099991
  62.6980019  47.7410011  64.9850006  63.5929985  47.1689987  65.3130035
  63.0200005  48.4420013  64.1859970  61.9920006  45.8950005  63.2589989
  63.4370003  45.9580002  62.8779984  61.0250015  46.1850014  62.1580009
  61.6800003  46.8650017  64.4960022  61.6739998  44.4329987  63.8289986
  62.3100014  43.9609985  65.0260010  62.5190010  44.7729988  65.7549973
  63.2770004  43.4830017  64.7610016  61.4319992  42.8940010  65.7490005
  61.0530014  42.2220001  64.9489975  60.3269997  43.5559998  66.4020004
  59.4189987  42.7410011  66.9229965  59.3059998  41.5460014  66.6819992
  58.5579987  43.5219994  67.9209976  57.4900017  43.3839989  67.6490021
  58.8050003  44.6030006  67.8499985  62.2620010  41.9900017  66.7320023
  63.2939987  41.8600006  66.3399963  61.8030014  40.9790001  66.7060013
  62.2379990  42.4480019  68.1019974  63.1580009  43.3489990  68.4300003
  64.0690002  43.7360001  67.7149963  62.8470001  43.8540001  69.8450012
  62.7700005  42.9869995  70.5360031  61.8510017  44.3429985  69.7939987
  58.8260002  43.0169983  69.3529968  59.9189987  42.8730011  69.4879990
  58.3359985  42.0299988  69.4929962  58.3460007  43.9910011  70.4369965
  57.2709999  44.2089996  70.2639999  58.9029999  44.9490013  70.3539963
  58.5050011  43.4280014  71.8580017  57.9850006  42.4459991  71.8970032
  57.9959984  44.1049995  72.5770035  59.9560013  43.2290001  72.3229980
  60.4350014  44.2210007  72.4680023  60.5289993  42.6879997  71.5410004
  60.0429993  42.4059982  73.6190033  59.5579987  41.4259987  73.4250031
  59.4589996  42.9029999  74.4229965  61.4850006  42.1349983  74.0989990
  62.0810013  41.7639999  73.2379990  61.4259987  41.2970009  74.8259964
  62.1469994  43.3489990  74.7089996  62.2900009  44.1899986  74.0149994
  62.5330009  43.5019989  75.9929962  62.9869995  44.4580002  76.2949982
  62.4179993  42.4939995  77.1119995  63.3699989  42.4790001  77.6849976
  62.2709999  41.4599991  76.7310028  61.2820015  42.7970009  78.1110001
  61.4410019  43.8019981  78.5569992  61.3499985  42.0569992  78.9380035
  59.8639984  42.7280006  77.5169983  59.7700005  41.7919998  76.9250031
  59.7239990  43.5789986  76.8160019  58.7389984  42.7500000  78.5660019
  58.8170013  41.8339996  79.1890030  57.7610016  42.7120018  78.0400009
  58.7509995  43.9690018  79.5039978  58.6899986  44.9039993  78.9079971
  59.7130013  43.9799995  80.0599976  57.6069984  43.9319992  80.5270004
  57.6180000  42.9339981  81.0159988  56.6320000  44.0309982  80.0039978
  57.7220001  44.9970016  81.6240005  57.6339989  46.0040016  81.1640015
  58.7319984  44.9220009  82.0800018  56.6739998  44.8450012  82.7269974
  56.8019981  45.6349983  83.4980011  56.7690010  43.8530006  83.2170029
  55.6500015  44.9290009  82.3040009  63.8820000  44.8650017  70.3740005
  64.3580017  45.4039993  69.5279999  64.6959991  44.3380013  70.9150009
  63.2470016  45.9339981  71.2699966  62.9399986  45.4760017  72.2340012
  62.3289986  46.3160019  70.7740021  64.1780014  47.1310005  71.5189972
  64.5820007  47.4729996  70.5419998  65.0429993  46.8040009  72.1350021
  63.4630013  48.3219986  72.1800003  62.5559998  48.5569992  71.5820007
  64.1259995  49.2130013  72.1470032  63.0470009  48.0740013  73.6389999
  62.5320015  47.0919991  73.7119980  62.3209991  48.8559990  73.9469986
  64.2340012  48.0960007  74.6129990  64.6240005  49.1329994  74.7009964
  65.0479965  47.4669991  74.1940002  63.9070015  47.5429993  76.0070038
  64.8489990  47.5429993  76.5950012  63.5680008  46.4900017  75.8990021
  62.8880005  48.3499985  76.8219986  61.9780006  48.5600014  76.2190018
  63.3639984  49.3240013  77.0630035  62.4860001  47.6520004  78.1350021
  63.3730011  47.1180000  78.5390015  61.7239990  46.8740005  77.9189987
  61.9519997  48.6150017  79.2129974  61.4280014  48.0250015  79.9960022
  61.2029991  49.2939987  78.7509995  63.0369987  49.4609985  79.9089966
  62.5320015  50.2060013  80.5609970  63.6199989  50.0219994  79.1480026
  64.0009995  48.6500015  80.7900009  64.4710007  47.8400002  80.1920013
  63.4169998  48.1689987  81.6029968  65.1240005  49.5029984  81.3939972
  64.6859970  50.3860016  81.9069977  65.7470016  49.8880005  80.5589981
  66.0210037  48.7480011  82.3700027  66.5049973  47.8839989  81.8679962
  65.4499969  48.3750000  83.2470016  66.8219986  49.4220009  82.7429962
  51.8800011 112.4619980  64.5410004  51.8429985 112.9609985  65.9710007
  52.7999992 112.7559967  66.4270020  51.1080017 112.3769989  66.5059967
  53.0779991 113.0360031  63.8569984  53.9889984 112.6650009  64.3010025
  53.0789986 112.8020020  62.8019981  53.0600014 114.1080017  63.9840012
  51.9589996 110.9720001  64.4950027  51.0470009 110.5370026  64.8779984
  52.0719986 110.6460037  63.4720001  52.8069992 110.6149979  65.0589981
  50.6510010 112.8909988  63.8040009  50.5540009 113.9660034  63.8559990
  49.7669983 112.4359970  64.2269974  50.7089996 112.6050034  62.7639999
  51.5219994 114.4660034  66.2089996  51.5260010 114.6350021  67.3069992
  50.4830017 114.6579971  65.8679962  53.3839989 116.3610001  66.2730026
  52.5509987 117.3889999  66.9729996  54.3670006 116.9029999  65.2829971
  52.4090004 115.3420029  65.5080032  54.1479988 115.4639969  67.3769989
  55.0760002 114.4629974  66.9290009  55.8429985 114.8899994  66.2480011
  54.5400009 113.6760025  66.3570023  55.8689995 113.7450027  68.0889969
  56.3009987 112.8249969  67.6409988  55.0530014 113.3720016  69.2180023
  54.0839996 112.5039978  68.9779968  53.8680000 111.9260025  67.9199982
  53.2610016 112.2829971  70.2539978  52.2039986 112.5299988  70.0179977
  53.6110001 112.9690018  71.0550003  57.1119995 114.5790024  68.5770035
  57.7560005 114.7210007  67.6829987  57.7000008 113.9649963  69.2919998
  56.7770004 115.8799973  69.1129990  56.4420013 115.9059982  70.4120026
  56.6689987 115.0230026  71.2289963  55.7830009 117.2559967  70.7429962
  55.5589981 117.7910004  69.7949982  56.5079994 117.8529968  71.3369980
  53.3750000 110.8160019  70.7099991  53.0040016 110.1589966  69.8949966
  52.7150002 110.6569977  71.5889969  54.8110008 110.3870010  71.0719986
  55.4809990 110.6340027  70.2210007  54.8320007 109.2829971  71.1949997
  55.3779984 111.0279999  72.3519974  55.1839981 112.1220016  72.3339996
  56.4799995 110.8889999  72.3690033  54.7999992 110.4300003  73.6460037
  55.1640015 109.3870010  73.7639999  53.6940002 110.3899994  73.5530014
  55.1139984 111.2330017  74.9209976  54.5830002 110.7409973  75.7630005
  54.6829987 112.2509995  74.8040009  56.6090012 111.3710022  75.2760010
  57.1080017 111.9520035  74.4710007  57.0709991 110.3610001  75.2760010
  56.8100014 112.0210037  76.6269989  56.7680016 111.3239975  77.4779968
  57.0149994 113.3290024  76.8870010  57.1360016 113.6409988  77.9339981
  57.0909996 114.4619980  75.8909988  56.9399986 114.0920029  74.8539963
  58.1069984 114.9100037  75.9250031  56.0940018 115.6220016  76.1139984
  55.0480003 115.2509995  76.1460037  56.1800003 116.2779999  75.2220001
  56.3919983 116.4980011  77.3450012  56.0979996 117.5400009  77.0970001
  57.4860001 116.5039978  77.5350037  55.6279984 116.1129990  78.6230011
  55.8370018 115.0589981  78.9039993  54.5419998 116.1800003  78.3990021
  55.9309998 117.0279999  79.8199997  55.1069984 116.9479980  80.5609970
  55.9389992 118.0770035  79.4530029  57.2700005 116.7480011  80.5279999
  57.5979996 117.6809998  81.0339966  58.0340004 116.4970016  79.7620010
  57.2140007 115.6360016  81.5889969  58.2560005 115.3239975  81.8140030
  56.6839981 114.7539978  81.1679993  56.5509987 116.0550003  82.9049988
  55.4920006 116.3420029  82.7350006  57.0859985 116.9250031  83.3430023
  56.5750008 115.2190018  83.6370010  54.4780006 117.0459976  71.5360031
  53.9970016 118.0319977  71.7139969  54.7200012 116.5979996  72.5230026
  53.4970016 116.1259995  70.7919998  53.9659996 115.1220016  70.7229996
  53.3569984 116.5029984  69.7570038  52.1160011 115.9420013  71.4410019
  51.6059990 115.1039963  70.9209976  51.5110016 116.8580017  71.2669983
  52.1580009 115.6449966  72.9479980  52.4729996 116.5599976  73.4929962
  52.9269981 114.8629990  73.1220016  50.8149986 115.1559982  73.5189972
  50.5649986 114.1910019  73.0279999  50.0180016 115.8850021  73.2600021
  50.8079987 114.9469986  75.0469971  49.8940010 114.3809967  75.3229980
  50.7519989 115.9359970  75.5500031  52.0470009 114.2119980  75.5790024
  52.9280014 114.8789978  75.4639969  52.2319984 113.3069992  74.9599991
  51.9659996 113.7819977  77.0500031  51.1780014 113.0049973  77.1539993
  51.6720009 114.6480026  77.6809998  53.3110008 113.2320023  77.5390015
  54.0449982 114.0619965  77.6139984  53.6749992 112.5380020  76.7509995
  53.3030014 112.4430008  78.8550034  54.2220001 111.8190002  78.8539963
  52.4329987 111.7529984  78.8799973  53.3320007 113.2929993  80.1330032
  52.3310013 113.7480011  80.2929993  54.0670013 114.1159973  80.0039978
  53.7330017 112.4599991  81.3590012  54.7120018 111.9759979  81.1520004
  52.9799995 111.6549988  81.4990005  53.8489990 113.2580032  82.6620026
  52.8470001 113.6669998  82.9140015  54.5250015 114.1230011  82.4899979
  54.3709984 112.4369965  83.8430023  53.7080002 111.5660019  84.0329971
  54.4109993 113.0599976  84.7620010  55.3940010 112.0579987  83.6299973
 103.8010025  52.9659996  66.4960022 102.5690002  52.2369995  67.0059967
 101.7460022  52.9319992  67.0859985 102.7710037  51.8740005  68.0019989
 104.9309998  52.0009995  66.3170013 105.1819992  51.5149994  67.2480011
 104.6439972  51.2389984  65.6070023 105.8099976  52.5000000  65.9380035
 103.4909973  53.5830002  65.1719971 103.0670013  52.8199997  64.5360031
 102.7399979  54.3530006  65.2710037 104.3720016  53.9990005  64.7060013
 104.2259979  54.0449982  67.4369965 104.4860001  53.6349983  68.4010010
 103.4359970  54.7709999  67.5559998 105.0940018  54.5559998  67.0449982
 102.0380020  51.0460014  66.1549988 101.2570038  50.5169983  66.7429962
 102.8590012  50.3120003  66.0049973 100.0989990  52.1769981  64.8020020
  99.0770035  51.1590004  64.4120026 100.2190018  53.3540001  63.8860016
 101.5299988  51.4529991  64.8809967  99.8119965  52.6580009  66.3069992
  99.2949982  53.9640007  66.5630035  98.2829971  54.0750008  66.1169968
  99.9570007  54.7430000  66.1279984  99.1709976  54.2820015  68.0910034
  98.7470016  55.3079987  68.1309967 100.4800034  54.2750015  68.7020035
 100.5540009  54.9080009  69.8700027  99.6529999  55.5460014  70.3970032
 101.9869995  54.8139992  70.3980026 102.1460037  55.6609993  71.0979996
 102.6780014  54.9379997  69.5370026  98.1470032  53.3559990  68.8369980
  97.2040024  53.3909988  68.2500000  97.8990021  53.7980003  69.8259964
  98.5739975  51.9790001  68.9290009  99.2119980  51.6489983  70.0540009
  99.2679977  52.3390007  71.0609970  99.8300018  50.2540016  69.8600006
 100.4209976  50.2859993  68.9189987  99.0039978  49.5219994  69.7330017
 102.2639999  53.4809990  71.1200027 101.8700027  52.6339989  70.5189972
 101.7119980  53.4920006  72.0849991 103.7590027  53.2330017  71.3740005
 104.2409973  54.2010002  71.6299973 104.2279968  52.8619995  70.4380035
 104.0650024  52.2529984  72.5210037 105.1539993  52.0369987  72.5130005
 103.5240021  51.2960014  72.3600006 103.7009964  52.8170013  73.9020004
 102.5950012  52.8730011  73.9869995 104.0960007  53.8520012  73.9789963
 104.2310028  51.9970016  75.0879974 105.3420029  51.9939995  75.0800018
 103.8880005  50.9490013  74.9560013 103.7080002  52.4939995  76.4550018
 103.9960022  51.7449989  77.2239990 102.5989990  52.4700012  76.4039993
 104.2050018  53.8580017  76.8799973 105.1969986  53.8610001  77.3560028
 103.5479965  55.0299988  76.7610016 104.0230026  55.9420013  77.1510010
 102.1930008  55.2430000  76.1289978 101.9240036  54.3880005  75.4720001
 102.2129974  56.1469994  75.4840012 101.0579987  55.3950005  77.1549988
 101.2249985  56.2949982  77.7850037 101.0660019  54.5060005  77.8219986
  99.6709976  55.5000000  76.5000000  99.5100021  54.5970001  75.8730011
  99.6549988  56.3889999  75.8330002  98.5149994  55.6150017  77.5080032
  97.5640030  55.7200012  76.9420013  98.6490021  56.5369987  78.1129990
  98.3909988  54.4109993  78.4570007  99.3130035  54.3279991  79.0719986
  98.3199997  53.4840012  77.8489990  97.1770020  54.4840012  79.3990021
  96.5729980  53.5620003  79.2559967  96.5380020  55.3479996  79.1169968
  97.5360031  54.5839996  80.8909988  98.1859970  53.7239990  81.1589966
  96.5989990  54.4739990  81.4759979  98.2210007  55.8820000  81.3140030
  99.1729965  56.0200005  80.7580032  98.4560013  55.8460007  82.4000015
  97.5630035  56.7560005  81.1230011 100.7490005  49.8209991  71.0189972
 101.4710007  50.6300011  71.2600021 101.3450012  48.9469986  70.6809998
  99.9909973  49.4090004  72.2910004 100.2030029  48.3390007  72.5009995
  98.8970032  49.5060005  72.1230011 100.3830032  50.2340012  73.5270004
 100.1240005  51.3019981  73.3629990 101.4850006  50.1749992  73.6569977
  99.7149963  49.7400017  74.8150024  99.9209976  48.6539993  74.9209976
  98.6139984  49.8689995  74.7379990 100.2220001  50.4430008  76.0830002
  99.9840012  51.5270004  76.0350037 101.3270035  50.3409996  76.1250000
  99.6210022  49.8320007  77.3580017  99.8659973  48.7490005  77.3669968
  98.5149994  49.9269981  77.3229980 100.1350021  50.4529991  78.6650009
  99.8300018  51.5200005  78.7129974 101.2450027  50.4129982  78.6660004
  99.6070023  49.7140007  79.9059982  99.9199982  48.6489983  79.8470001
  98.4970016  49.7400017  79.8759995 100.0589981  50.2890015  81.2610016
  99.5540009  49.7019997  82.0579987  99.7040024  51.3380013  81.3489990
 101.5749969  50.2400017  81.5149994 102.0550003  49.6320000  80.7190018
 101.7600021  49.7400017  82.4899979 102.2429962  51.6170006  81.5419998
 101.7639999  52.2150002  82.3460007 102.0309982  52.1230011  80.5759964
 103.7659988  51.6119995  81.7659988 104.1480026  52.6240005  81.5090027
 104.2350006  50.8870010  81.0680008 104.2149963  51.3059998  83.2080002
 105.3239975  51.2459984  83.2139969 103.8249969  50.3079987  83.5009995
 103.7860031  52.3419991  84.2519989 104.1480026  53.3520012  83.9680023
 104.1979980  52.0820007  85.2509995 102.6780014  52.3849983  84.3280029
  92.4860001 113.5650024  64.5619965  93.0049973 113.4110031  65.9749985
  93.6630020 112.5550003  65.9990005  92.1679993 113.2009964  66.6250000
  93.5899963 114.0289993  63.6710014  94.3929977 113.3079987  63.6510010
  93.2300034 114.1809998  62.6640015  93.9749985 114.9649963  64.0500031
  91.9489975 112.2870026  64.0120010  91.1039963 111.9359970  64.5849991
  91.6119995 112.4390030  62.9970016  92.7129974 111.5240021  63.9889984
  91.4069977 114.5950012  64.5400009  91.7870026 115.4769974  65.0339966
  90.5360031 114.2590027  65.0820007  91.1240005 114.8399963  63.5270004
  93.7789993 114.6169968  66.5859985  94.7160034 114.7630005  66.0049973
  94.0759964 114.3040009  67.6100006  93.2529984 116.9100037  67.7620010
  92.4639969 118.1419983  67.4459991  94.7180023 117.1240005  67.9779968
  93.0230026 115.8349991  66.5879974  92.6330032 116.2180023  69.0790024
  91.2470016 115.8290024  69.0520020  90.8980026 115.5130005  68.0459976
  90.6190033 116.6940002  69.3539963  90.9029999 114.6370010  70.0210037
  89.7949982 114.6119995  70.0960007  91.4570007 114.7880020  71.3489990
  91.0100021 115.8470001  72.0159988  90.0019989 116.4899979  71.7460022
  91.9570007 116.1709976  73.1849976  91.9789963 117.2760010  73.3030014
  92.9759979 115.8290024  72.9059982  91.2789993 113.2360001  69.4199982
  90.9570007 113.2080002  68.3570023  90.6559982 112.5049973  69.9789963
  92.6849976 112.9110031  69.5329971  92.9309998 111.5989990  69.5960007
  92.1559982 110.7210007  69.2509995  94.2919998 111.3479996  70.2389984
  95.0670013 111.9329987  69.6989975  94.5199966 110.2649994  70.1409988
  91.5279999 115.5049973  74.5130005  92.4120026 115.4970016  75.1859970
  91.2360001 114.4479980  74.3349991  90.3970032 116.2539978  75.2419968
  89.5000000 116.2839966  74.5879974  90.7200012 117.3010025  75.4300003
  90.0329971 115.5839996  76.5749969  90.9499969 115.4619980  77.1910019
  89.6719971 114.5609970  76.3320007  88.9489975 116.2770004  77.4160004
  88.6449966 115.5339966  78.1829987  88.0599976 116.5039978  76.7900009
  89.3980026 117.5350037  78.1800003  89.2649994 118.4290009  77.5339966
  90.4749985 117.4349976  78.4329987  88.6129990 117.7020035  79.5090027
  88.8089981 116.8059998  80.1360016  87.5230026 117.7220001  79.2919998
  88.9909973 118.9339981  80.3010025  89.7929993 119.5429993  79.8590012
  88.4440002 119.3960037  81.4440002  88.8410034 120.3170013  81.8970032
  87.3280029 118.7860031  82.2529984  87.1080017 117.7259979  82.0009995
  86.3919983 119.3610001  82.0830002  87.6539993 118.8629990  83.7480011
  87.9739990 119.8970032  83.9980011  88.5120010 118.1989975  83.9840012
  86.5370026 118.4970016  84.7440033  86.6859970 117.4329987  85.0250015
  85.5550003 118.5770035  84.2300034  86.4950027 119.3990021  85.9879990
  85.6129990 120.0719986  85.9280014  87.3889999 120.0550003  85.9219971
  86.5559998 118.6959991  87.3550034  86.7770004 117.6159973  87.2170029
  85.5589981 118.7910004  87.8359985  87.6480026 119.3219986  88.2419968
  87.4339981 120.4079971  88.3410034  88.6139984 119.2610016  87.6969986
  87.8690033 118.6800003  89.6169968  87.6829987 117.5879974  89.5329971
  87.1050034 119.0790024  90.3170013  89.2860031 118.8769989  90.1630020
  89.5630035 119.9509964  90.2200012  90.0090027 118.3649979  89.4919968
  89.3769989 118.4349976  91.1780014  94.2379990 111.7429962  71.7279968
  93.3580017 111.2519989  72.1959991  94.0849991 112.8410034  71.8069992
  95.4869995 111.3580017  72.5309982  96.3870010 111.7200012  71.9889984
  95.5540009 110.2509995  72.5950012  95.4940033 111.9580002  73.9489975
  95.4580002 113.0650024  73.8590012  96.4509964 111.6910019  74.4449997
  94.3229980 111.5009995  74.8389969  94.4229965 110.4120026  75.0390015
  93.3659973 111.6559982  74.2969971  94.2080002 112.2600021  76.1719971
  93.3040009 111.8960037  76.7060013  94.0530014 113.3379974  75.9530029
  95.4209976 112.1050034  77.1019974  96.3209991 112.5210037  76.5989990
  95.5999985 111.0220032  77.2710037  95.2679977 112.7929993  78.4720001
  96.1910019 112.5680008  79.0490036  94.4150009 112.3450012  79.0260010
  95.1169968 114.3259964  78.4140015  95.5419998 114.6890030  77.4540024
  95.7330017 114.7649994  79.2279968  93.6809998 114.8580017  78.5780029
  93.0179977 114.3600006  77.8379974  93.6859970 115.9449997  78.3479996
  93.0920029 114.6790009  79.9889984  93.7600021 115.1750031  80.7249985
  93.0609970 113.5960007  80.2350006  91.6809998 115.2699966  80.1360016
  90.9980011 114.7720032  79.4150009  91.7229996 116.3470001  79.8639984
  91.0820007 115.1620026  81.5479965  90.1039963 115.6880035  81.5550003
  91.7509995 115.6890030  82.2610016  90.8700027 113.7249985  82.0459976
  91.8590012 113.2190018  82.0719986  90.2289963 113.1800003  81.3209991
  90.2570038 113.6330032  83.4410019  90.9229965 114.1299973  84.1780014
  90.1210022 112.5729980  83.7440033  89.2710037 114.1439972  83.4720001
 124.6250000 110.5059967  64.3339996 124.0400009 110.6050034  65.7330017
 124.4680023 111.4710007  66.2149963 124.3460007 109.7320023  66.2910004
 124.1510010 111.6589966  63.5079994 124.5019989 111.5719986  62.4900017
 123.0709991 111.6780014  63.5019989 124.5130005 112.5940018  63.9080009
 126.1210022 110.5289993  64.3489990 126.4980011 110.4589996  63.3390007
 126.4899979 111.4570007  64.7620010 126.5230026 109.6969986  64.9069977
 124.1579971 109.2389984  63.6940002 124.5810013 108.3740005  64.1839981
 124.4079971 109.2070007  62.6440010 123.0859985 109.1819992  63.8110008
 122.4889984 110.7020035  65.8619995 122.1529999 111.6179962  65.3310013
 122.2529984 110.8349991  66.9400024 120.2440033 109.5540009  65.1460037
 119.7890015 108.1520004  64.8880005 119.8929977 110.5400009  64.0770035
 121.8330002 109.5339966  65.3610001 119.6569977 110.0869980  66.5469971
 118.4369965 109.5670013  67.0970001 117.9309998 108.8359985  66.4319992
 117.7180023 110.4049988  67.2160034 118.6139984 108.8509979  68.4899979
 117.5899963 108.5790024  68.8259964 119.2320023 109.6760025  69.5000000
 118.6250000 110.8109970  69.7910004 117.4660034 111.1029968  69.5199966
 119.6110001 111.7310028  70.5240021 119.6969986 112.6719971  69.9400024
 120.6100006 111.2440033  70.5329971 119.3889999 107.4919968  68.3730011
 118.9560013 106.9589996  67.4990005 119.1719971 106.8949966  69.2850037
 120.8199997 107.6689987  68.2500000 121.4820023 106.6520004  67.7020035
 120.9769974 105.6360016  67.2419968 122.9980011 106.9089966  67.7630005
 123.2070007 107.8590012  67.2259979 123.5029984 106.0759964  67.2289963
 119.1709976 112.0459976  71.9690018 118.8730011 111.1100006  72.4879990
 118.2799988 112.7089996  71.9290009 120.2720032 112.7320023  72.7979965
 119.8150024 113.1729965  73.7089996 120.7109985 113.5619965  72.2040024
 121.3970032 111.7799988  73.2389984 121.7939987 111.2389984  72.3529968
 120.9749985 111.0179977  73.9290009 122.5820007 112.4779968  73.9160004
 122.2379990 113.1210022  74.7539978 123.0479965 113.1320038  73.1480026
 123.6800003 111.5230026  74.4120026 124.6060028 112.1149979  74.5739975
 123.8830032 110.7770004  73.6149979 123.3270035 110.8150024  75.7310028
 122.3339996 110.3320007  75.6080017 123.2070007 111.5839996  76.5240021
 124.3440018 109.7760010  76.1330032 124.1750031 108.7770004  75.7060013
 125.3929977 109.9599991  76.9570007 126.0479965 109.1039963  77.1750031
 125.8079987 111.2480011  77.6289978 125.3440018 112.1360016  77.1500015
 126.9069977 111.3740005  77.5250015 125.4950027 111.2979965  79.1389999
 126.0189972 112.1800003  79.5670013 125.9229965 110.3970032  79.6289978
 124.0009995 111.4260025  79.4749985 123.4639969 110.5520020  79.0490036
 123.5970001 112.3359985  78.9810028 123.6819992 111.4919968  80.9789963
 122.5790024 111.5419998  81.0970001 124.1110001 112.4189987  81.4169998
 124.2050018 110.2819977  81.7669983 125.3089981 110.3809967  81.8369980
 123.9820023 109.3470001  81.2099991 123.6470032 110.1579971  83.1890030
 123.7389984 111.1439972  83.6920013 124.2770004 109.4319992  83.7470016
 122.1880035 109.6989975  83.2750015 122.0839996 108.7259979  82.7480011
 121.5559998 110.4400024  82.7409973 121.6760025 109.5520020  84.7070007
 122.2570038 108.7779999  85.2529984 120.6039963 109.2610016  84.7089996
 121.7850037 110.5159988  85.2480011 123.4980011 106.9889984  69.2220001
 122.9919968 107.8399963  69.7259979 124.5889969 107.1989975  69.2229996
 123.2409973 105.6979980  70.0179977 123.7880020 104.8610001  69.5339966
 122.1579971 105.4560013  69.9739990 123.6549988 105.7649994  71.5039978
 124.7610016 105.8610001  71.5630035 123.3799973 104.7990036  71.9779968
 123.0199966 106.9049988  72.3280029 123.4229965 107.8750000  71.9639969
 123.3320007 106.7910004  73.3880005 121.4840012 106.9599991  72.2630005
 121.0550003 106.0049973  72.6350021 121.1819992 107.0770035  71.1999969
 120.8659973 108.1299973  73.0439987 119.8079987 108.2310028  72.7200012
 121.3769989 109.0770035  72.7659988 120.8889999 107.9660034  74.5709991
 121.8700027 108.3280029  74.9469986 120.8119965 106.8899994  74.8359985
 119.7429962 108.7180023  75.2699966 118.7900009 108.1770020  75.0910034
 119.6429977 109.7249985  74.8130035 119.9560013 108.9089966  76.7779999
 120.9329987 109.4199982  76.9140015 120.0240021 107.9219971  77.2829971
 118.8600006 109.7500000  77.4580002 118.1920013 109.0650024  78.0230026
 118.2429962 110.2429962  76.6760025 119.3830032 110.8489990  78.4089966
 118.5130005 111.3199997  78.9140015 119.8789978 111.6330032  77.7979965
 120.3880005 110.3809967  79.4789963 120.6679993 111.2509995  80.1100006
 121.3119965 110.0339966  78.9690018 119.9010010 109.2500000  80.3949966
 120.7639999 108.9039993  81.0039978 119.5920029 108.3909988  79.7610016
 118.7590027 109.6190033  81.3379974 118.4929962 108.7549973  81.9840012
 117.8570023 109.9130020  80.7590027 119.0520020 110.4690018  81.9909973
  62.1679993 121.2639999  67.3379974  62.4059982 121.0009995  65.8590012
  63.4669991 120.9029999  65.6859970  62.0569992 121.8580017  65.3020020
  60.7309990 121.6210022  67.5410004  60.4850006 121.7129974  68.5889969
  60.4860001 122.5429993  67.0339966  60.1189995 120.8550034  67.0889969
  62.4580002 120.0329971  68.1370010  61.8100014 119.2369995  67.8020020
  63.4830017 119.7190018  68.0039978  62.2840004 120.2099991  69.1880035
  63.0180016 122.3860016  67.8499985  62.8100014 122.5660019  68.8939972
  62.8129997 123.3069992  67.3249969  64.0699997 122.1559982  67.7710037
  61.7169991 119.7549973  65.2249985  62.0760002 118.8440018  65.7500000
  62.0660019 119.6569977  64.1750031  59.4560013 120.6320038  64.2119980
  59.0340004 119.7099991  63.1129990  60.2099991 121.8509979  63.7849998
  60.2910004 119.8040009  65.3010025  58.1669998 121.0589981  65.0559998
  57.2389984 122.0390015  64.5640030  56.3400002 121.5329971  64.1510010
  57.6720009 122.6600037  63.7509995  56.7589989 123.0530014  65.6620026
  56.2299995 123.8529968  65.1019974  57.9039993 123.5979996  66.3529968
  57.7140007 124.7829971  66.9199982  56.6679993 125.4189987  66.8990021
  59.0559998 125.2809982  67.4769974  59.5870018 125.7809982  66.6389999
  59.6609993 124.4069977  67.7979965  55.6949997 122.4359970  66.6389999
  54.8199997 122.1569977  66.0139999  55.3359985 123.2180023  67.3420029
  56.1660004 121.2460022  67.3059998  56.7439995 121.4349976  68.4899979
  56.6580009 122.4489975  69.1689987  57.5359993 120.1729965  68.8509979
  58.3380013 120.0699997  68.0879974  56.8650017 119.2910004  68.7669983
  58.8899994 126.2799988  68.6419983  58.2060013 127.0979996  68.3310013
  59.8740005 126.7429962  68.8669968  58.3520012 125.6309967  69.9240036
  57.4399986 125.0490036  69.6729965  58.0509987 126.4270020  70.6380005
  59.3530006 124.7070007  70.6350021  60.1969986 125.3160019  71.0230026
  59.7659988 123.9680023  69.9169998  58.6980019 123.9309998  71.7870026
  57.9000015 123.2910004  71.3539963  58.2050018 124.6429977  72.4830017
  59.6629982 123.0230026  72.5640030  60.2200012 122.3980026  71.8330002
  59.0690002 122.3320007  73.1999969  60.6839981 123.7590027  73.4570007
  61.3310013 124.3929977  72.8140030  61.3429985 122.9820023  73.8990021
  60.0509987 124.6090012  74.5360031  59.7220001 125.6039963  74.2009964
  59.8979988 124.2789993  75.8330002  59.4350014 125.0049973  76.5169983
  60.2960014 122.9670029  76.4649963  60.0519981 122.1309967  75.7760010
  59.7099991 122.7939987  77.3929977  61.7980003 122.8420029  76.8030014
  62.3740005 123.0059967  75.8679962  62.0099983 121.8030014  77.1360016
  62.3219986 123.8300018  77.8600006  61.7169991 124.7620010  77.8550034
  63.3520012 124.1169968  77.5579987  62.4140015 123.2689972  79.2890015
  62.8709984 122.2570038  79.2500000  61.3889999 123.1620026  79.7030029
  63.2719994 124.1380005  80.2320023  64.3259964 124.0859985  79.8860016
  63.2330017 123.7089996  81.2559967  62.8759995 125.6250000  80.2949982
  62.9830017 126.0690002  79.2819977  63.5900002 126.1520004  80.9629974
  61.4490013 125.8779984  80.7979965  61.3650017 125.4990005  81.8379974
  60.7400017 125.2949982  80.1729965  61.0260010 127.3450012  80.7630005
  59.9819984 127.4469986  81.1289978  61.0800018 127.7429962  79.7269974
  61.6879997 127.9540024  81.4150009  58.1699982 120.2279968  70.2559967
  57.3880005 120.0830002  71.0309982  58.6279984 121.2269974  70.4199982
  59.2779999 119.1809998  70.4199982  60.0439987 119.3880005  69.6419983
  58.8769989 118.1640015  70.2229996  59.9690018 119.2070007  71.7929993
  59.9080009 120.2190018  72.2480011  61.0460014 118.9879990  71.6289978
  59.4350014 118.1529999  72.7740021  59.2849998 117.2129974  72.2009964
  58.4449997 118.4560013  73.1760025  60.4199982 117.8180008  73.9100037
  61.4440002 117.7450027  73.4840012  60.1529999 116.8150024  74.3069992
  60.4599991 118.7949982  75.0889969  60.7099991 119.8170013  74.7320023
  61.2729988 118.4680023  75.7699966  59.1520004 118.8339996  75.8860016
  58.7809982 117.8000031  76.0510025  58.3899994 119.3759995  75.2870026
  59.3149986 119.5179977  77.2460022  59.9700012 120.4069977  77.1240005
  59.8209991 118.8249969  77.9520035  57.9830017 119.9840012  77.8320007
  57.3260002 119.1019974  77.9889984  57.4840012 120.6620026  77.1070023
  58.1419983 120.7109985  79.1669998  58.8040009 121.5950012  79.0439987
  58.6269989 120.0189972  79.8880005  56.7929993 121.1470032  79.7460022
  56.1339989 120.2529984  79.7460022  56.3170013 121.9059982  79.0899963
  56.9290009 121.6940002  81.1709976  56.9329987 122.8040009  81.1289978
  57.9189987 121.3840027  81.5699997  55.8670006 121.2009964  82.1630020
  54.8670006 121.5569992  81.8369980  56.0859985 121.6719971  83.1449966
  55.8170013 119.6829987  82.3509979  56.8409996 119.2730026  82.4909973
  55.3699989 119.1959991  81.4580002  55.2060013 119.4120026  83.2379990
  46.5890007  57.9869995  67.2300034  46.4620018  58.6440010  65.8649979
  46.2439995  59.6910019  66.0110016  45.6160011  58.2140007  65.3479996
  46.9669991  56.5460014  67.0950012  47.8989983  56.4669991  66.5550003
  47.1010017  56.0890007  68.0640030  46.2220001  55.9799995  66.5550003
  47.6720009  58.6780014  67.9899979  47.9090004  58.1599998  68.9069977
  48.5460014  58.7270012  67.3570023  47.3919983  59.6959991  68.2180023
  45.3199997  58.1059990  68.0120010  44.5019989  57.5830002  67.5400009
  45.0419998  59.1430016  68.1269989  45.4510002  57.6920013  69.0009995
  47.6910019  58.5589981  64.9120026  47.3629990  58.8689995  63.8969994
  47.9959984  57.4949989  64.8150024  48.9939995  60.8450012  64.9049988
  47.9949989  61.7140007  65.5970001  48.9900017  60.9109993  63.4099998
  48.8079987  59.3209991  65.3769989  50.4630013  61.2500000  65.4089966
  51.2169991  60.3849983  66.2689972  52.2989998  60.6240005  66.1829987
  51.1189995  59.3170013  65.9749985  50.8300018  60.5159988  67.7730026
  49.7290001  60.3790016  67.8249969  51.2579994  61.7960014  68.2949982
  50.4420013  62.3040009  69.2180023  49.2900009  61.9480019  69.4260025
  51.1870003  63.4169998  69.9720001  51.3120003  64.2679977  69.2689972
  52.1930008  63.0390015  70.2539978  51.4809990  59.3639984  68.6019974
  52.5730019  59.4020004  68.3980026  51.0830002  58.4000015  68.2210007
  51.2179985  59.5040016  70.0149994  51.8969994  58.6459999  70.7799988
  52.6119995  57.7449989  70.3669968  51.6609993  58.9830017  72.2529984
  51.2179985  59.9990005  72.3270035  52.6500015  59.0000000  72.7600021
  50.4379997  63.8919983  71.2340012  49.4080009  64.2109985  70.9680023
  50.9679985  64.7809982  71.6380005  50.3820000  62.8320007  72.3460007
  51.4160004  62.5180016  72.6019974  49.8400002  61.9350014  71.9769974
  49.6879997  63.3349991  73.6220016  48.6739998  63.7120018  73.3690033
  50.2760010  64.1880035  74.0240021  49.5690002  62.2610016  74.7119980
  50.5699997  61.8059998  74.8690033  48.8839989  61.4570007  74.3679962
  49.0779991  62.8230019  76.0569992  48.0540009  63.2389984  75.9489975
  49.7480011  63.6679993  76.3249969  49.1320000  61.8069992  77.2200012
  49.0900002  62.4000015  78.1579971  50.1269989  61.3149986  77.1949997
  48.0390015  60.7620010  77.1920013  47.7890015  60.3820000  76.1910019
  47.3639984  60.2799988  78.2580032  46.5880013  59.5190010  78.0899963
  47.5890007  60.6479988  79.7070007  48.5149994  61.2509995  79.8239975
  47.7560005  59.7299995  80.3099976  46.4280014  61.4350014  80.3519974
  45.5569992  60.7560005  80.4720001  46.1220016  62.2690010  79.6849976
  46.7840004  62.0379982  81.7249985  47.2299995  61.2599983  82.3799973
  45.8440018  62.3829994  82.2060013  47.7340012  63.2430000  81.6250000
  47.2900009  63.9420013  80.8840027  48.7229996  62.9239998  81.2330017
  47.9230003  64.0220032  82.9359970  46.9570007  64.0650024  83.4830017
  48.2070007  65.0640030  82.6780014  49.0159988  63.4749985  83.8629990
  49.9690018  63.3950005  83.2969971  48.7360001  62.4560013  84.2060013
  49.2330017  64.3740005  85.0859985  48.2729988  64.4449997  85.6409988
  49.4860001  65.3960037  84.7320023  50.3230019  63.8849983  86.0370026
  51.2910004  63.7789993  85.5019989  50.0419998  62.8940010  86.4540024
  50.4560013  64.5960007  86.8799973  50.7309990  57.9570007  72.9339981
  51.2509995  56.9780006  73.0110016  49.8269997  57.8110008  72.3050003
  50.2639999  58.4029999  74.3300018  49.5489998  57.6570015  74.7389984
  49.7099991  59.3590012  74.2180023  51.3950005  58.6290016  75.3479996
  50.9690018  59.1489983  76.2320023  52.1489983  59.3170013  74.9100037
  52.1160011  57.3540001  75.8310013  52.9710007  57.6730003  76.4649963
  52.5419998  56.8190002  74.9550018  51.2560005  56.3709984  76.6529999
  51.9140015  55.5530014  77.0159988  50.4949989  55.9140015  75.9850006
  50.5289993  56.9819984  77.8679962  50.0190010  56.1669998  78.4250031
  49.7420006  57.6730003  77.4960022  51.4389992  57.7599983  78.8320007
  51.9169998  58.5900002  78.2689972  52.2480011  57.0909996  79.1949997
  50.7029991  58.3680000  80.0380020  50.3860016  57.5410004  80.7080002
  49.7929993  58.8919983  79.6770020  51.5709991  59.3730011  80.8170013
  51.8019981  60.2350006  80.1549988  52.5279999  58.8650017  81.0660019
  50.9760017  59.8969994  82.1370010  49.9920006  60.3790016  81.9550018
  51.6599998  60.6780014  82.5329971  50.8269997  58.8030014  83.2070007
  51.2529984  57.8629990  82.7969971  49.7480011  58.6160011  83.3939972
  51.5530014  59.0800018  84.5350037  52.6250000  59.2770004  84.3199997
  51.4970016  58.1529999  85.1449966  50.9799995  60.2309990  85.3789978
  51.0769997  61.1819992  84.8119965  51.5979996  60.3269997  86.2979965
  49.5209999  60.0419998  85.7870026  49.3919983  59.0719986  86.3130035
  48.8590012  60.0460014  84.8939972  49.1940002  60.8580017  86.4660034
  84.7480011 126.2829971  66.7669983  85.1999969 126.7070007  67.6009979
  83.7710037 126.0270004  67.0159988  85.2559967 125.4049988  66.5339966
  84.7730026 127.2379990  65.5910034  84.2890015 126.7279968  64.7300034
  85.8359985 127.4380035  65.3389969  84.0410004 128.5579987  65.9079971
  84.5189972 129.0370026  66.7900009  82.9860001 128.3249969  66.1679993
  83.1360016 130.6900024  64.6549988  81.8619995 130.2230072  64.0319977
  83.8649979 131.7689972  63.9220009  82.8740005 131.1390076  66.1770020
  84.1210022 129.4309998  64.7789993  82.0189972 132.2729950  66.4059982
  81.0490036 132.1600037  65.8750000  82.5000000 133.2019958  66.0319977
  81.6679993 132.5290070  67.9160004  81.1139984 133.4929962  67.9150009
  82.8690033 132.6589966  68.7080002  82.6529999 133.1450043  69.9270020
  81.6719971 133.7929993  70.2679977  83.8079987 132.7270050  70.8389969
  84.5439987 133.5579987  70.9039993  84.3109970 131.8459930  70.3870010
  80.6849976 131.4600067  68.5189972  79.8150024 131.4019928  67.8310013
  80.2910004 131.8549957  69.4800034  81.2880020 130.1490021  68.6380005
  81.4449997 129.6450043  69.8649979  80.9290009 130.0820007  70.8820038
  82.3799973 128.4270020  69.7689972  83.2089996 128.7120056  69.0859985
  81.8170013 127.5920029  69.3010025  83.2789993 132.3520050  72.2330017
  82.3460007 131.7640076  72.1050034  83.0230026 133.2619934  72.8160019
  84.2490005 131.4660034  73.0149994  85.0619965 132.0789948  73.4599991
  84.7149963 130.7489929  72.3050003  83.5569992 130.6269989  74.0950012
  84.2220001 129.7769928  74.3610001  82.6289978 130.1959991  73.6600037
  83.2190018 131.3739929  75.3929977  82.4769974 130.7669983  75.9540024
  82.7590027 132.3569946  75.1579971  84.4520035 131.5650024  76.2870026
  85.2139969 132.1360016  75.7149963  84.8980026 130.5709991  76.5039978
  84.2030029 132.3099976  77.6119995  83.7300034 133.2899933  77.3899994
  85.2099991 132.5399933  78.0199966  83.3860016 131.5379944  78.6210022
  82.2959976 131.6210022  78.4980011  83.8669968 130.7630005  79.6139984
  83.1529999 130.2250061  80.2549973  85.3190002 130.4779968  79.9240036
  85.4710007 130.4649963  81.0240021  85.9909973 131.2630005  79.5159988
  85.7809982 129.1269989  79.3410034  85.6699982 129.1629944  78.2360001
  85.1320038 128.3139954  79.7289963  87.2350006 128.7500000  79.6650009
  87.8899994 129.5989990  79.3720016  87.5289993 127.8779984  79.0429993
  87.4629974 128.4089966  81.1470032  86.5400009 128.6779938  81.7030029
  88.2890015 129.0429993  81.5339966  87.7939987 126.9380035  81.4520035
  87.9660034 126.8369980  82.5439987  88.7450027 126.6829987  80.9380035
  86.7419968 125.8990021  81.0260010  87.1819992 124.8970032  81.2220001
  86.5670013 125.9820023  79.9319992  85.3970032 125.9660034  81.7580032
  84.9160004 126.9440002  81.5419998  85.5790024 125.9250031  82.8529968
  84.4380035 124.8410034  81.3740005  83.4950027 124.9250031  81.9560013
  84.8980026 123.8519974  81.5820007  84.1869965 124.9029999  80.2929993
  83.0029984 127.9700012  71.1110001  83.3509979 128.8359985  71.7129974
  83.9029999 127.3690033  70.8600006  82.0910034 127.0670013  71.9560013
  81.4869995 126.4339981  71.2710037  81.3840027 127.6869965  72.5469971
  82.8629990 126.1050034  72.8820038  83.5670013 125.5149994  72.2580032
  82.1409988 125.3889999  73.3290024  83.6589966 126.7509995  74.0309982
  84.3560028 127.5159988  73.6279984  84.2710037 125.9550018  74.5059967
  82.7870026 127.3919983  75.1240005  81.9840012 126.6880035  75.4280014
  82.2949982 128.2859955  74.6849976  83.5770035 127.8239975  76.3730011
  83.0400009 128.6560059  76.8779984  84.5569992 128.2310028  76.0449982
  83.8040009 126.7030029  77.4020004  84.6460037 126.9830017  78.0699997
  84.1009979 125.7819977  76.8560028  82.5810013 126.3970032  78.2819977
  82.6880035 125.3659973  78.6819992  81.6640015 126.4150009  77.6549988
  82.4059982 127.3330002  79.4919968  82.3550034 128.3869934  79.1429977
  83.3030014 127.2330017  80.1399994  81.1529999 127.0049973  80.3190002
  81.1159973 125.9059982  80.4720001  80.2630005 127.2850037  79.7170029
  81.0410004 127.6760025  81.6969986  79.9599991 127.7300034  81.9459991
  81.4300003 128.7160034  81.6660004  81.7060013 126.8929977  82.8410034
  82.8099976 126.9339981  82.7220001  81.4029999 125.8259964  82.7779999
  81.3130035 127.4199982  84.2239990  80.2050018 127.4069977  84.3020020
  81.6279984 128.4839935  84.2850037  81.8870010 126.6600037  85.4120026
  81.4349976 125.6460037  85.4680023  81.6569977 127.2040024  86.3529968
  82.9899979 126.5579987  85.3190002  82.8870010 116.0500031  64.4469986
  82.7210007 115.5800018  65.8850021  83.6760025 115.2249985  66.2419968
  82.0490036 114.7350006  65.8909988  83.3059998 114.9079971  63.5740013
  82.5619965 114.1250000  63.5760002  83.4400024 115.2379990  62.5550003
  84.2399979 114.4860001  63.9129982  81.5979996 116.6139984  63.9389992
  80.8079987 115.8789978  63.9780006  81.3059998 117.4599991  64.5429993
  81.6999969 116.9560013  62.9189987  83.9260025 117.1210022  64.3840027
  83.6849976 117.8690033  65.1240005  83.9680023 117.5780029  63.4070015
  84.8990021 116.7269974  64.6360016  82.2210007 116.6039963  66.9489975
  81.9869995 116.0429993  67.8799973  81.2620010 117.0429993  66.6009979
  84.5540009 117.3059998  67.9349976  85.6579971 117.9899979  67.1910019
  84.7149963 115.8300018  68.1230011  83.1549988 117.6559982  67.2129974
  84.4369965 118.0139999  69.3730011  83.2659988 117.8980026  70.1930008
  82.4229965 117.3720016  69.6949997  82.8960037 118.9209976  70.4219971
  83.5199966 117.1770020  71.5690002  82.7529984 117.5599976  72.2760010
  84.8440018 117.4250031  72.0999985  85.0569992 118.7030029  72.4140015
  84.1969986 119.5729980  72.4769974  86.5550003 118.9069977  72.6989975
  87.0759964 118.9100037  71.7180023  86.9309998 118.0500031  73.2990036
  83.2500000 115.6380005  71.4369965  83.8889999 115.2669983  70.6070023
  82.1949997 115.4919968  71.1200027  83.5429993 114.8619995  72.6200027
  82.7200012 115.0569992  73.6500015  81.7720032 115.8280029  73.6679993
  83.1070023 114.1460037  74.8190002  82.9189987 113.0899963  74.5279999
  82.4319992 114.4049988  75.6630020  86.8379974 120.2320023  73.4380035
  86.3629990 121.0749969  72.8919983  87.9339981 120.4150009  73.4420013
  86.3450012 120.2139969  74.8919983  86.8840027 119.4240036  75.4570007
  85.2649994 119.9540024  74.8990021  86.5100021 121.5609970  75.6149979
  86.1009979 122.3560028  74.9550018  87.5899963 121.7740021  75.7689972
  85.7689972 121.6480026  76.9639969  84.6989975 121.3929977  76.8119965
  85.8099976 122.7060013  77.3020020  86.3479996 120.7740021  78.0940018
  86.5869980 121.4469986  78.9459991  87.3089981 120.3199997  77.7710037
  85.3980026 119.6790009  78.6350021  84.4179993 120.1480026  78.8700027
  85.8259964 119.3369980  79.6009979  85.2610016 118.4850006  77.7210007
  86.2239990 118.0800018  77.3759995  84.1279984 117.8970032  77.2919998
  84.2210007 117.0220032  76.6320038  82.7060013 118.2559967  77.6549988
  82.2689972 118.8809967  76.8470001  82.6660004 118.8570023  78.5889969
  81.7850037 117.0260010  77.8389969  81.7529984 116.4390030  76.8960037
  80.7559967 117.3960037  78.0319977  82.1880035 116.0940018  78.9980011
  82.2160034 116.6849976  79.9390030  83.2109985 115.7030029  78.8109970
  81.2419968 114.8980026  79.1900024  81.1620026 114.3619995  78.2200012
  80.2289963 115.2639999  79.4609985  81.7080002 113.8809967  80.2500000
  82.7760010 113.6500015  80.0479965  81.1320038 112.9369965  80.1409988
  81.6009979 114.3550034  81.7040024  81.8310013 115.4410019  81.7440033
  82.3860016 113.8359985  82.2949982  80.2490005 114.1100006  82.3880005
  80.0400009 113.0189972  82.4240036  79.4570007 114.5800018  81.7669983
  80.1829987 114.6859970  83.8010025  79.1699982 114.5729980  84.2419968
  80.4169998 115.7720032  83.7699966  80.9199982 114.1829987  84.4639969
  84.5699997 114.3430023  75.2590027  84.7620010 115.4319992  75.3740005
  85.2669983 113.9589996  74.4840012  84.8769989 113.6729965  76.6029968
  84.8649979 112.5670013  76.4929962  84.0680008 113.9499969  77.3119965
  86.2210007 114.1250000  77.1999969  86.1809998 115.2289963  77.3170013
  87.0419998 113.8880005  76.4899979  86.5559998 113.5179977  78.5749969
  87.4219971 114.0660019  79.0029984  86.8560028 112.4560013  78.4440002
  85.3889999 113.5859985  79.5650024  84.6240005 112.8489990  79.2399979
  84.9309998 114.5970001  79.5120010  85.7160034 113.3079987  81.0400009
  86.1559982 112.2929993  81.1490021  84.7399979 113.3119965  81.5699997
  86.6289978 114.3499985  81.7080002  86.4189987 115.3479996  81.2659988
  87.6890030 114.0999985  81.4869995  86.4509964 114.4680023  83.2330017
  87.2009964 115.1959991  83.6100006  86.6750031 113.4860001  83.7020035
  85.0559998 114.9309998  83.7030029  85.1210022 115.1770020  84.7850037
  84.3399963 114.0910034  83.5780029  84.4879990 116.1470032  82.9530029
  84.1510010 115.7959976  81.9540024  85.2890015 116.9039993  82.8140030
  83.3020020 116.8219986  83.6510010  83.6050034 117.1880035  84.6559982
  82.5289993 116.0380020  83.7959976  82.6610031 117.9580002  82.8359985
  81.6090012 118.0630035  83.1790009  82.6429977 117.6429977  81.7710037
  83.3339996 119.3369980  82.9309998  84.3980026 119.2269974  82.6330032
  83.3160019 119.6829987  83.9860001  82.7070007 120.4049988  82.0339966
  82.8209991 120.1210022  80.9660034  83.2030029 121.3860016  82.1949997
  81.6250000 120.5260010  82.2570038  62.9799995  58.9440002  64.2509995
  63.4770012  58.7849998  65.6780014  63.1180000  59.6199989  66.2620010
  64.5540009  58.8520012  65.6640015  61.5019989  58.7350006  64.1809998
  61.1660004  58.7280006  63.1549988  61.2579994  57.7820015  64.6279984
  60.9700012  59.5110016  64.7109985  63.3209991  60.2960014  63.7109985
  62.9819984  60.3899994  62.6899986  62.8590012  61.0810013  64.2900009
  64.3899994  60.4539986  63.7159996  63.6349983  57.9070015  63.3959999
  64.6979980  58.0830002  63.3219986  63.2109985  57.8849983  62.4029999
  63.5000000  56.9459991  63.8689995  63.1059990  57.4690018  66.4260025
  61.9990005  57.3880005  66.4639969  63.4690018  57.5699997  67.4710007
  63.4430008  54.8740005  66.4909973  64.0780029  53.8300018  65.6250000
  61.9879990  54.6710014  66.7710037  63.6780014  56.3110008  65.8059998
  64.2369995  54.9550018  67.8919983  65.6750031  55.0040016  67.8580017
  66.0550003  55.6829987  67.0660019  66.0709991  53.9900017  67.6340027
  66.3489990  55.4630013  69.2109985  67.3659973  55.0180016  69.2220001
  65.6429977  55.0519981  70.4039993  65.3990021  53.7540016  70.5149994
  65.9580002  52.8600006  69.8929977  64.3799973  53.5159988  71.6399994
  64.7910004  53.9700012  72.5670013  64.2919998  52.4199982  71.7929993
  66.5739975  57.0149994  69.2529984  67.1360016  57.3079987  68.3399963
  67.2099991  57.2270012  70.1399994  65.3280029  57.7379990  69.3249969
  65.4349976  59.0330009  69.5950012  66.4850006  59.6580009  69.6610031
  64.0410004  59.6220016  69.8170013  63.4399986  59.4430008  68.9000015
  64.1470032  60.7179985  69.9680023  62.9920006  54.1129990  71.3099976
  62.5900002  53.6180000  70.4010010  63.0979996  55.1949997  71.0820007
  61.9700012  53.9659996  72.4489975  61.8499985  52.8930016  72.7089996
  60.9869995  54.3359985  72.0839996  62.3409996  54.7560005  73.7139969
  62.5530014  55.8089981  73.4319992  63.2669983  54.3260002  74.1510010
  61.2350006  54.7500000  74.7789993  60.9809990  53.7010002  75.0429993
  60.3230019  55.2109985  74.3420029  61.5929985  55.5200005  76.0630035
  60.7060013  55.5279999  76.7320023  61.8019981  56.5769997  75.7919998
  62.8030014  54.9840012  76.8600006  62.9150009  55.6409988  77.7490005
  63.7109985  55.1430016  76.2399979  62.6749992  53.5499992  77.3219986
  61.6800003  53.2820015  77.7050018  63.6389999  52.6049995  77.3109970
  63.3969994  51.6040001  77.6979980  65.0699997  52.7739983  76.8470001
  65.1800003  53.6629982  76.1910019  65.3700027  51.8969994  76.2350006
  66.0910034  52.9319992  77.9970016  67.0849991  53.1320000  77.5429993
  66.1729965  51.9799995  78.5640030  65.7580032  54.0639992  78.9830017
  64.9599991  53.7120018  79.6709976  65.3550034  54.9329987  78.4199982
  66.9530029  54.5559998  79.8109970  67.6259995  55.1380005  79.1460037
  67.5240021  53.6850014  80.1969986  66.5169983  55.4119987  81.0080032
  66.2669983  54.7290001  81.8470001  65.5889969  55.9650002  80.7470016
  67.5540009  56.4370003  81.4860001  68.5550003  55.9630013  81.5699997
  67.2500000  56.7610016  82.5039978  67.6139984  57.6949997  80.6060028
  66.5690002  58.0120010  80.4039993  68.0820007  57.4440002  79.6289978
  68.3450012  58.8720016  81.2490005  68.2519989  59.7789993  80.6139984
  69.4250031  58.6440010  81.3779984  67.9069977  59.0960007  82.2450027
  63.3510017  58.9840012  71.0410004  63.9420013  59.2150002  71.9530029
  63.3240013  57.8800011  70.9209976  61.9099998  59.4729996  71.2340012
  61.3440018  59.2939987  70.2939987  61.9140015  60.5690002  71.4160004
  61.1590004  58.7639999  72.3740005  61.1279984  57.6769981  72.1500015
  60.1100006  59.1300011  72.3909988  61.7649994  58.9519997  73.7740021
  62.8219986  58.6129990  73.7720032  61.2070007  58.2980003  74.4769974
  61.6930008  60.3969994  74.2929993  60.6230011  60.6650009  74.4300003
  62.1170006  61.0820007  73.5289993  62.4420013  60.6380005  75.6139984
  62.1269989  61.6230011  76.0199966  63.5330009  60.6920013  75.4100037
  62.1910019  59.5499992  76.6669998  62.6759987  58.6049995  76.3379974
  61.0970001  59.3629990  76.7210007  62.6930008  59.9140015  78.0719986
  62.0629997  60.7500000  78.4449997  63.7400017  60.2799988  78.0169983
  62.6170006  58.7630005  79.0930023  62.7379990  59.2130013  80.1019974
  63.4539986  58.0499992  78.9329987  61.2910004  57.9840012  79.0640030
  61.3520012  57.1590004  78.3219986  60.4959984  58.6790009  78.7190018
  60.8300018  57.4570007  80.4300003  59.8069992  57.0390015  80.3180008
  60.7649994  58.3250008  81.1200027  61.7330017  56.3919983  81.0690002
  62.7550011  56.8079987  81.1979980  61.8030014  55.5209999  80.3830032
  61.2290001  55.9140015  82.4390030  61.8230019  55.0270004  82.7460022
  60.1759987  55.5800018  82.3209991  61.2809982  56.9449997  83.5630035
  62.3359985  57.2220001  83.7740021  60.8429985  56.5250015  84.4940033
  60.7249985  57.8680000  83.2900009 108.0599976 121.1650009  62.4599991
 108.7429962 120.7190018  61.7050018 107.0260010 120.9540024  62.1119995
 107.3050003 123.5899963  63.2260017 105.9270020 123.0179977  63.2480011
 107.4509964 124.9209976  62.5670013 108.3140030 122.5729980  62.5169983
 107.8870010 123.6699982  64.7109985 107.2509995 124.4420013  65.7409973
 107.9779968 125.1910019  66.1230011 106.3710022 125.0179977  65.3830032
 108.3040009 120.4169998  63.8040009 107.5999985 120.7910004  64.5780029
 108.1220016 119.0429993  63.6310005 108.9749985 118.8489990  64.0250015
 109.7470016 120.4929962  64.3359985 109.9400024 121.5449982  64.6370010
 110.4420013 120.2699966  63.4990005 110.7170029 118.2419968  65.3379974
 110.4250031 117.3870010  66.5230026 110.3219986 117.6760025  64.0199966
 109.9380035 119.6299973  65.4670029 112.2720032 118.6279984  65.2939987
 112.8310013 119.6019974  66.1920013 112.0790024 120.1029968  66.8379974
 113.3239975 120.3949966  65.5899963 113.9260025 118.9899979  67.1289978
 114.5739975 118.3539963  66.4879990 113.3059998 118.1949997  68.1650009
 114.1460037 117.4329987  68.8629990 115.3199997 117.2220001  68.5800018
 113.3919983 116.7949982  70.0370026 113.0289993 115.7910004  69.7279968
 112.5110016 117.4359970  70.2559967 114.8570023 120.1129990  67.7040024
 115.3270035 120.5869980  66.8160019 115.6949997 119.6760025  68.2880020
 114.1630020 121.1500015  68.4359970 114.0729980 120.9540024  69.7590027
 114.4189987 119.9380035  70.3440018 113.5220032 122.2369995  70.4150009
 112.4769974 122.3639984  70.0589981 114.1529999 123.0889969  70.0810013
 106.7760010 123.5739975  66.9599991 106.4369965 124.2760010  67.7509995
 107.8270035 122.7190018  67.4680023 108.7829971 123.3499985  68.1360016
 108.7949982 124.5439987  68.4049988 109.8769989 122.3590012  68.5609970
 110.6309967 122.9380035  69.1350021 110.3509979 121.9619980  67.6389999
 105.5309982 122.7020035  66.5839996 104.7139969 123.3629990  66.2229996
 105.8310013 122.0510025  65.7350006 105.0889969 121.8610001  67.6740036
 104.5049973 122.5149994  68.6800003 104.1969986 123.6989975  68.6699982
 104.2819977 121.5510025  69.8479996 104.0459976 120.5469971  69.4359970
 103.4120026 121.9179993  70.4329987 114.2360001 116.7070007  71.3239975
 114.9420013 117.5640030  71.3580017 114.8410034 115.7760010  71.3270035
 113.3690033 116.8069992  72.5910034 112.6429977 115.9670029  72.6210022
 112.7900009 117.7539978  72.5370026 114.1989975 116.8130035  73.8840027
 115.0029984 117.5739975  73.7900009 114.6890030 115.8219986  73.9940033
 113.3909988 117.1119995  75.1630020 114.0250015 116.8379974  76.0329971
 112.4830017 116.4739990  75.1959991 112.9860001 118.5910034  75.3199997
 112.2470016 118.8410034  74.5289993 113.8779984 119.2350006  75.1630020
 112.3639984 118.9420013  76.6849976 111.5619965 118.2099991  76.9189987
 111.8919983 119.9440002  76.6119995 113.3539963 118.9749985  77.8580017
 114.2020035 119.6490021  77.6119995 113.7630005 117.9489975  77.9739990
 112.7129974 119.4189987  79.1880035 111.7770004 118.8349991  79.3170013
 112.4160004 120.4860001  79.1009979 113.6210022 119.1800003  80.3700027
 114.2350006 118.2720032  80.2770004 113.8030014 119.9440002  81.4629974
 114.5709991 119.6309967  82.1849976 113.1439972 121.2460022  81.8310013
 112.3629990 121.0640030  82.5999985 112.6299973 121.6910019  80.9530029
 114.0790024 122.3199997  82.4100037 113.4710007 123.2399979  82.5400009
 114.8880005 122.5540009  81.6849976 114.6959991 122.0179977  83.7819977
 115.3700027 121.1399994  83.6869965 113.8909988 121.7630005  84.5029984
 115.4919968 123.2170029  84.3180008 115.6890030 123.8929977  83.4580002
 116.4739990 122.8820038  84.7149963 114.7620010 124.0289993  85.3949966
 113.6849976 124.0739975  85.1259995 115.1510010 125.0690002  85.3509979
 114.9169998 123.5120010  86.8219986 114.5120010 122.4810028  86.9000015
 114.3659973 124.1650009  87.5329971 115.9889984 123.4909973  87.1149979
 113.5520020 122.0940018  71.9509964 114.6009979 121.9260025  72.2770004
 112.9589996 121.2080002  72.2620010 113.0289993 123.3489990  72.6650009
 113.4800034 124.2549973  72.2070007 113.3840027 123.3190002  73.7170029
 111.4940033 123.5090027  72.6989975 111.1169968 123.5839996  71.6569977
 111.2639999 124.4710007  73.2070007 110.7190018 122.3779984  73.4140015
 110.8710022 121.4520035  72.8190002 109.6330032 122.6080017  73.3960037
 111.1299973 122.0510025  74.8669968 112.2310028 122.1129990  75.0029984
 110.8450012 120.9899979  75.0299988 110.4250031 122.8479996  75.9820023
 110.5550003 122.2789993  76.9270020 109.3359985 122.9000015  75.7679977
 110.9869995 124.2559967  76.2119980 110.7850037 124.8820038  75.3160019
 112.0889969 124.1699982  76.3229980 110.4580002 124.9680023  77.4680023
 110.7720032 124.3730011  78.3509979 109.3470001 124.9990005  77.4530029
 111.0179977 126.3909988  77.6149979 110.5879974 127.0439987  76.8259964
 112.1149979 126.3290024  77.4499969 110.8150024 127.0350037  78.9919968
 111.2969971 126.3759995  79.7450027 109.7310028 127.0780029  79.2279968
 111.4029999 128.4550018  79.1330032 111.3410034 128.7420044  80.2040024
 110.7699966 129.1649933  78.5589981 112.8489990 128.6190033  78.6429977
 112.8779984 128.4620056  77.5439987 113.4810028 127.8369980  79.1149979
 113.4810028 129.9720001  78.9779968 112.7419968 130.7839966  78.8069992
 114.3280029 130.1380005  78.2789993 114.0260010 130.0390015  80.4020004
 113.2050018 129.9250031  81.1419983 114.7610016 129.2230072  80.5690002
 114.5360031 131.0110016  80.5759964 109.3259964 121.2050018  69.4290009
 108.5189972 120.6839981  68.8700027 108.8850021 121.6149979  70.3629990
 110.3929977 120.1650009  69.7939987 111.1269989 120.6039963  70.5039978
 110.9410019 119.8779984  68.8710022 109.7880020 118.8909988  70.4039993
 110.5719986 118.1050034  70.4410019 108.9769974 118.5179977  69.7429962
 109.2440033 119.0759964  71.8270035 108.4440002 119.8470001  71.8239975
 110.0690002 119.4489975  72.4710007 108.6869965 117.7789993  72.4339981
 109.4779968 116.9980011  72.4369965 107.8590012 117.4199982  71.7860031
 108.1389999 117.9530029  73.8600006 107.5910034 117.0279999  74.1409988
 107.4079971 118.7890015  73.8580017 109.2099991 118.2369995  74.9280014
 109.7829971 119.1380005  74.6200027 109.9329987 117.3949966  74.9830017
 108.6289978 118.5289993  76.3270035 107.8990021 119.3600006  76.2170029
 109.4609985 118.9140015  76.9560013 107.9589996 117.3369980  76.9710007
 107.2470016 116.8140030  76.3150024 108.0899963 116.8919983  78.2360001
 107.5059967 116.0120010  78.5429993 108.9359970 117.4789963  79.3379974
 108.2659988 117.9309998  80.1009979 109.5920029 118.2969971  78.9729996
 109.8410034 116.4769974  80.0800018 109.2529984 115.6240005  80.4810028
 110.2789993 117.0240021  80.9420013 111.0090027 115.9560013  79.2340012
 111.4329987 116.8150024  78.6709976 110.6320038 115.2190018  78.4929962
 112.1370010 115.3359985  80.0660019 111.7639999 114.4120026  80.5559998
 112.4219971 116.0569992  80.8619995 113.3870010 115.0149994  79.2389984
 113.6859970 115.9369965  78.6949997 113.1230011 114.2509995  78.4779968
 114.5719986 114.5250015  80.0660019 114.8740005 115.3040009  80.7990036
 115.4430008 114.2979965  79.4150009 114.2979965 113.6100006  80.6330032
 105.5419998 121.4820023  70.7350006 106.4369965 121.2320023  70.1259995
 105.3949966 120.6589966  71.4670029 105.7779999 122.7799988  71.5220032
 104.8270035 123.0289993  72.0400009 106.0100021 123.6169968  70.8290024
 106.9059982 122.6340027  72.5540009 107.8830032 122.6849976  72.0260010
 106.8440018 121.6279984  73.0210037 106.8759995 123.6890030  73.6719971
 106.8590012 124.7020035  73.2160034 107.8119965 123.6090012  74.2649994
 105.6880035 123.5579987  74.6470032 104.7379990 123.4850006  74.0739975
 105.6279984 124.4850006  75.2570038 105.7870026 122.3669968  75.6149979
 106.2699966 121.5120010  75.0970001 104.7669983 122.0390015  75.9110031
 106.5830002 122.6869965  76.8870010 107.4879990 123.2710037  76.6139984
 106.9250031 121.7289963  77.3330002 105.7969971 123.4639969  77.9580002
 104.9520035 122.8259964  78.2929993 105.3649979 124.3799973  77.5009995
 106.6210022 123.8980026  79.1920013 105.9169998 124.3870010  79.8990021
 107.3730011 124.6579971  78.8899994 107.3399963 122.7639999  79.9449997
 106.7300034 121.8379974  79.8799973 107.4189987 123.0370026  81.0189972
 108.7659988 122.4820023  79.4410019 109.4369965 123.3099976  79.7559967
 108.7590027 122.4759979  78.3300018 109.3359985 121.1340027  79.9000015
 110.2549973 120.9150009  79.3160019 108.5970001 120.3379974  79.6630020
 109.6940002 121.0729980  81.3870010 108.8460007 121.4680023  81.9879990
 110.5490036 121.7600021  81.5650024 110.0640030 119.6829987  81.8889999
 110.8949966 119.2679977  81.2789993 109.2020035 118.9889984  81.7969971
 110.3840027 119.7259979  82.9520035  93.0650024 127.7580032  64.0759964
  92.9639969 127.7149963  65.5849991  93.3069992 126.7440033  65.9120026
  91.9229965 127.7850037  65.8649979  92.4229965 128.9969940  63.5530014
  92.8359985 129.8370056  64.0899963  92.6139984 129.1159973  62.4959984
  91.3570023 128.9869995  63.7239990  94.5000000 127.7900009  63.6769981
  94.9449997 128.7030029  64.0439987  95.0250015 126.9550018  64.1159973
  94.6019974 127.7639999  62.6020012  92.4089966 126.5619965  63.4669991
  92.6529999 126.4830017  62.4179993  91.3349991 126.6210022  63.5559998
  92.7170029 125.6579971  63.9729996  93.7419968 128.7980042  66.3840027
  94.8219986 128.7010040  66.1409988  93.6480026 128.5540009  67.4629974
  92.0910034 130.7649994  66.9280014  91.1149979 129.6929932  67.2969971
  91.5299988 131.9199982  66.1539993  93.3170013 130.1360016  66.0950012
  92.7829971 131.3249969  68.2720032  93.6800003 132.4470062  68.1900024
  93.1169968 133.4040070  68.1650009  94.3030014 132.4069977  67.2710037
  94.6880035 132.5549927  69.3939972  95.5419998 133.1699982  69.0380020
  95.1709976 131.2640076  69.8259964  95.9179993 130.6869965  68.8759995
  96.4329987 131.2729950  67.9300003  96.0439987 129.1849976  69.1409988
  95.7409973 128.6629944  68.2080002  95.3420029 128.8780060  69.9449997
  94.1100006 133.3849945  70.5869980  94.0490036 134.4329987  70.2239990
  94.8450012 133.3489990  71.4189987  92.8050003 132.9490051  71.0179977
  92.3000031 133.7200012  71.9840012  92.9039993 134.6179962  72.5569992
  90.8099976 133.4140015  72.1900024  90.2539978 133.8600006  71.3379974
  90.4919968 133.9230042  73.1250000  97.4960022 128.8190002  69.4710007
  98.1719971 129.2709961  68.7139969  97.5899963 127.7149963  69.3939972
  97.9459991 129.2389984  70.8759995  97.9059982 130.3459930  70.9629974
  99.0029984 128.9270020  71.0130005  97.1129990 128.6020050  71.9960022
  97.0839996 127.5029984  71.8349991  96.0709991 128.9850006  71.9530029
  97.6770020 128.8580017  73.3960037  97.6940002 129.9490051  73.6090012
  98.7249985 128.4889984  73.4160004  96.9069977 128.1459961  74.5199966
  97.6269989 127.9970016  75.3529968  96.5709991 127.1380005  74.1969986
  95.7419968 128.9550018  75.1399994  96.1569977 129.9389954  75.4459991
  95.4739990 128.4259949  76.0800018  94.4690018 129.1210022  74.3450012
  93.9680023 128.1750031  74.0889969  93.8720016 130.2790070  73.9899979
  92.9290009 130.2270050  73.4260025  94.3730011 131.6889954  74.2300034
  94.3430023 132.2299957  73.2610016  95.4359970 131.7039948  74.5530014
  93.5439987 132.5420074  75.2259979  92.4619980 132.4559937  74.9889984
  93.8349991 133.6009979  75.0599976  93.7649994 132.2530060  76.7279968
  93.3649979 131.2489929  76.9840012  93.1760025 133.0019989  77.3000031
  95.2340012 132.3430023  77.1800003  95.7399979 133.1230011  76.5709991
  95.7239990 131.3699951  76.9629974  95.4639969 132.6950073  78.6579971
  94.9270020 133.6360016  78.9049988  96.5500031 132.8880005  78.7929993
  95.0479965 131.6009979  79.6510010  95.4970016 130.6320038  79.3460007
  93.9420013 131.4949951  79.6230011  95.4919968 131.9170074  81.0839996
  95.1029968 132.9190063  81.3629990  96.6019974 131.9779968  81.0999985
  95.0380020 130.8950043  82.1200027  95.4329987 131.1560059  83.1250000
  95.4049988 129.8820038  81.8479996  93.9280014 130.8540039  82.1709976
  90.5070038 131.9069977  72.2870026  91.0630035 131.4850006  73.1510010
  90.8489990 131.3829956  71.3690033  89.0130005 131.6340027  72.4810028
  88.4380035 131.9640045  71.5899963  88.6770020 132.2519989  73.3410034
  88.6949997 130.1629944  72.7919998  89.4940033 129.7720032  73.4580002
  88.7330017 129.5570068  71.8619995  87.3290024 129.9989929  73.4840012
  86.6320038 129.4570007  72.8099976  86.9059982 131.0140076  73.6439972
  87.3399963 129.3049927  74.8619995  87.5719986 128.2290039  74.7149963
  86.3160019 129.3739929  75.2880020  88.3349991 129.8670044  75.8949966
  89.3659973 129.7100067  75.5110016  88.2480011 129.2760010  76.8320007
  88.1829987 131.3560028  76.2419968  87.2689972 131.4989929  76.8580017
  88.0439987 131.9329987  75.3030014  89.4020004 131.9479980  76.9739990
  89.2450027 133.0420074  77.0859985  90.3059998 131.7910004  76.3470001
  89.6409988 131.3419952  78.3639984  89.7180023 130.2380066  78.2649994
  88.7509995 131.5590057  78.9929962  90.8960037 131.8359985  79.1029968
  91.8059998 131.5820007  78.5189972  90.9459991 131.2669983  80.0559998
  90.8980026 133.3410034  79.4199982  89.9029999 133.6020050  79.8389969
  91.0319977 133.9160004  78.4800034  91.9570007 133.7850037  80.4449997
  91.8150024 134.8710022  80.6350021  92.9769974 133.6369934  80.0279999
  91.8610001 133.0460052  81.7870026  92.2829971 132.0260010  81.6559982
  90.7860031 132.9199982  82.0400009  92.5520020 133.7420044  82.9520035
  92.1520004 134.7720032  83.0729980  93.6460037 133.7949982  82.7659988
  92.3809967 133.1829987  83.8970032  71.8489990  43.9739990  67.5960007
  70.4219971  43.4860001  67.3870010  69.8130035  43.8889999  68.1829987
  70.3909988  42.4099998  67.4820023  72.3740005  43.5000000  68.9160004
  71.7620010  43.8779984  69.7220001  72.3939972  42.4220009  68.9710007
  73.3799973  43.8610001  69.0699997  72.7340012  43.4900017  66.4899979
  72.7880020  42.4119987  66.4700012  72.3199997  43.7980003  65.5410004
  73.7330017  43.8909988  66.5770035  71.8860016  45.4739990  67.5930023
  71.5410004  45.8600006  66.6460037  72.8889999  45.8400002  67.7539978
  71.2539978  45.8880005  68.3649979  69.7139969  43.8149986  66.0439987
  69.8980026  44.8759995  65.7710037  68.6240005  43.7179985  66.2369995
  69.1309967  42.2099991  64.0289993  69.8580017  41.1850014  63.2210007
  68.3720016  43.2280006  63.2400017  70.1699982  42.9539986  64.9950027
  68.1090012  41.4690018  65.0179977  68.5830002  40.4500008  65.9089966
  69.6019974  40.6570015  66.3000031  68.6149979  39.4770012  65.3730011
  67.6340027  40.2779999  67.1370010  66.6019974  40.2249985  66.7279968
  67.7829971  41.4029999  68.0329971  66.7669983  41.5730019  68.8769989
  65.6849976  41.0040016  68.8190002  67.1699982  42.5610008  69.9759979
  68.1179962  42.1910019  70.4240036  66.3880005  42.5349998  70.7649994
  67.9029999  38.9249992  67.8769989  67.7910004  38.1129990  67.1279984
  67.1129990  38.7470016  68.6380005  69.2429962  38.8629990  68.4199982
  69.3550034  39.3089981  69.6780014  68.4229965  39.5719986  70.4169998
  70.8470001  39.4609985  70.0120010  71.3570023  39.8160019  69.0910034
  71.2549973  38.4650002  70.2860031  67.3450012  43.9990005  69.4530029
  66.3470001  44.3989983  69.1740036  67.9700012  44.0070000  68.5339966
  67.9899979  44.9199982  70.4970016  67.4860001  44.7630005  71.4749985
  67.8320007  45.9799995  70.2040024  69.4970016  44.6800003  70.6520004
  70.0090027  45.0229988  69.7279968  69.6949997  43.5919991  70.7620010
  70.1190033  45.3889999  71.8600006  69.6070023  45.0480003  72.7850037
  69.9680023  46.4850006  71.7620010  71.6200027  45.0870018  71.9759979
  72.1029968  45.3849983  71.0210037  71.7689972  43.9930000  72.1060028
  72.3460007  45.8450012  73.1039963  72.1549988  46.9319992  72.9769974
  73.4319992  45.6920013  72.9280014  71.9789963  45.4199982  74.5029984
  70.9339981  45.6170006  74.7860031  72.7829971  44.8050003  75.3909988
  72.3679962  44.5289993  76.3720016  74.2259979  44.3950005  75.2050018
  74.7630005  44.4290009  76.1770020  74.7429962  45.1240005  74.5449982
  74.4329987  42.9910011  74.5849991  75.4690018  42.9609985  74.1839981
  73.7399979  42.8639984  73.7259979  74.2959976  41.7680016  75.5230026
  75.1080017  41.7809982  76.2809982  74.4420013  40.8619995  74.8970032
  72.9550018  41.6259995  76.2590027  72.7080002  40.5480003  76.3639984
  72.1589966  42.1010017  75.6460037  72.9639969  42.2410011  77.6630020
  73.5380020  43.1920013  77.6330032  73.5039978  41.5519981  78.3470001
  71.5589981  42.5289993  78.2080002  70.9970016  41.5719986  78.2549973
  71.0390015  43.2010002  77.4919968  71.5459976  43.1940002  79.5930023
  72.0210037  42.5009995  80.3199997  70.4879990  43.3260002  79.9059982
  72.2500000  44.5519981  79.6569977  71.8099976  45.2439995  78.9079971
  73.3339996  44.4490013  79.4390030  72.1370010  45.0000000  80.6679993
  71.0910034  40.4900017  71.1360016  70.4589996  41.3870010  70.9629974
  72.1520004  40.8180008  71.1039963  70.8300018  39.9199982  72.5390015
  71.6790009  39.2589989  72.8150024  69.9089966  39.2999992  72.5380020
  70.6729965  41.0019989  73.6210022  71.5279999  41.7109985  73.5690002
  70.7020035  40.5079994  74.6149979  69.3600006  41.7939987  73.5319977
  68.5110016  41.0800018  73.4769974  69.3479996  42.3909988  72.5940018
  69.0930023  42.7340012  74.7190018  69.8889999  43.5079994  74.7369995
  69.1510010  42.1699982  75.6750031  67.7210007  43.4199982  74.5940018
  66.9189987  42.6629982  74.7300034  67.6510010  43.7980003  73.5510025
  67.4810028  44.6209984  75.5279999  66.5989990  45.1590004  75.1179962
  68.3509979  45.3089981  75.4749985  67.1470032  44.2719994  76.9919968
  68.0540009  43.8919983  77.5100021  66.3710022  43.4770012  76.9990005
  66.5680008  45.4850006  77.7429962  65.6460037  45.7999992  77.2080002
  67.2990036  46.3209991  77.6869965  66.2080002  45.2630005  79.2249985
  65.9800034  46.2560005  79.6660004  67.0879974  44.8540001  79.7679977
  65.0000000  44.3440018  79.4879990  65.3470001  43.2919998  79.3949966
  64.2210007  44.5180016  78.7160034  64.3560028  44.5519981  80.8740005
  63.9269981  45.5760002  80.9229965  65.1549988  44.4910011  81.6429977
  63.2639999  43.5299988  81.2470016  62.4599991  43.5750008  80.4810028
  62.8230019  43.8479996  82.2160034  63.7420006  42.0789986  81.3740005
  64.0419998  41.6809998  80.3809967  62.9230003  41.4449997  81.7760010
  64.6110001  42.0040016  82.0619965 119.8649979 116.6640015  64.8249969
 119.0210037 117.4489975  65.8030014 119.6669998 117.9410019  66.5149994
 118.4059982 116.7559967  66.3590012 119.0080032 115.7050018  64.0609970
 118.2229996 116.2360001  63.5429993 119.5979996 115.1740036  63.3289986
 118.5579987 114.9779968  64.7210007 120.5029984 117.5800018  63.8380013
 121.1399994 117.0390015  63.1539993 119.7360001 118.0879974  63.2729988
 121.0640030 118.3509979  64.3450012 120.9179993 115.8789978  65.5400009
 121.5090027 115.3190002  64.8300018 120.4670029 115.1760025  66.2239990
 121.5790024 116.5270004  66.0979996 118.1380005 118.5569992  65.1979980
 117.2350006 118.6490021  65.8379974 117.7779999 118.2519989  64.1920013
 118.5579987 120.9530029  66.1149979 118.5579987 120.4029999  67.5029984
 117.2990036 121.6060028  65.6399994 118.9010010 119.7699966  65.0930023
 119.8020020 121.9560013  65.9300003 119.5859985 123.3679962  66.1279984
 118.5459976 123.6169968  66.4300003 119.7699966 123.9039993  65.1719971
 120.5100021 124.0319977  67.2139969 121.4400024 124.3150024  66.6770020
 120.8280029 123.1250000  68.2959976 121.7829971 123.5800018  69.1070023
 122.5540009 124.4909973  68.8460007 121.7180023 122.8190002  70.4329987
 122.1910019 121.8239975  70.2939987 120.6500015 122.6849976  70.7089996
 119.8389969 125.3359985  67.7720032 119.5650024 125.9639969  66.8970032
 120.5759964 125.9319992  68.3509979 118.6399994 125.0250015  68.5260010
 118.8239975 124.8799973  69.8499985 119.7720032 125.3330002  70.4739990
 117.6500015 124.1289978  70.4919968 116.6979980 124.5500031  70.1029968
 117.7040024 124.3259964  71.5839996 122.4229965 123.5970001  71.5550003
 122.1429977 124.6719971  71.5329971 123.5199966 123.5329971  71.3960037
 122.0619965 123.0439987  72.9380035 122.1719971 121.9390030  72.9150009
 120.9960022 123.2710037  73.1529999 122.9720001 123.6309967  74.0210037
 122.7890015 124.7229996  74.1179962 124.0110016 123.5009995  73.6500015
 122.9189987 122.9520035  75.3960037 122.7050018 121.8720016  75.2519989
 122.1100006 123.3919983  76.0169983 124.2720032 123.0270004  76.1259995
 124.5039978 124.0849991  76.3720016 125.0469971 122.6809998  75.4089966
 124.4169998 122.1309967  77.3710022 125.4909973 121.8619995  77.4570007
 123.8659973 121.1849976  77.1829987 124.0329971 122.7600021  78.6770020
 123.9879990 123.8590012  78.6910019 123.8219986 122.0810013  79.8140030
 123.5100021 122.6510010  80.7020035 123.8590012 120.5820007  79.9929962
 124.9100037 120.2460022  80.1200027 123.4449997 120.0680008  79.0989990
 123.0419998 120.1380005  81.2249985 122.9609985 119.0299988  81.2279968
 122.0149994 120.5520020  81.1309967 123.6250000 120.5899963  82.5790024
 123.9909973 121.6330032  82.4649963 124.5049973 119.9690018  82.8529968
 122.5920029 120.5899963  83.7160034 122.2789993 119.5459976  83.9339981
 121.7020035 121.1510010  83.3580017 123.0609970 121.2699966  85.0070038
 123.9690018 120.7529984  85.3860016 122.2610016 121.1650009  85.7710037
 123.3700027 122.7630005  84.8290024 122.4980011 123.2689972  84.3629990
 124.2360001 122.8769989  84.1429977 123.7160034 123.4670029  86.1439972
 124.4899979 122.8730011  86.6760025 122.8079987 123.4940033  86.7829971
 124.2419968 124.8820038  85.9229965 123.5110016 125.4889984  85.3470001
 125.1869965 124.8590012  85.3399963 124.4329987 125.3909988  86.8919983
 117.7200012 122.6129990  70.2220001 118.6520004 122.3499985  69.6790009
 116.8720016 122.3280029  69.5619965 117.6699982 121.7450027  71.4879990
 116.7289963 121.9580002  72.0390015 118.5199966 122.0039978  72.1559982
 117.7249985 120.2389984  71.1740036 118.7399979 119.9769974  70.8050003
 117.0159988 120.0309982  70.3440018 117.3489990 119.3219986  72.3529968
 117.3229980 118.2750015  71.9830017 116.3270035 119.5759964  72.7080002
 118.3219986 119.4000015  73.5370026 118.3079987 120.4179993  73.9800034
 119.3470001 119.2210007  73.1490021 118.0500031 118.3570023  74.6360016
 119.0080032 118.2040024  75.1760025 117.7570038 117.3909988  74.1699982
 116.9970016 118.7620010  75.6780014 116.0319977 118.8960037  75.1429977
 117.2720032 119.7399979  76.1279984 116.7819977 117.7200012  76.7939987
 117.0599976 116.7139969  76.4130020 115.6979980 117.6979980  77.0360031
 117.5240021 118.0130005  78.1080017 118.5920029 118.2269974  77.8880005
 117.4759979 117.1250000  78.7740021 116.9860001 119.2310028  78.8610001
 115.8960037 119.0950012  79.0289993 117.1210022 120.1330032  78.2269974
 117.6770020 119.4789963  80.2040024 118.7770004 119.4889984  80.0449982
 117.4309998 118.6429977  80.8919983 117.2580032 120.8119965  80.8349991
 116.1490021 120.8870010  80.8239975 117.6449966 121.6409988  80.2050018
 117.7220001 121.0220032  82.2779999 117.2679977 120.2389984  82.9229965
 117.3180008 122.0000000  82.6169968 119.2300034 121.0289993  82.4690018
 119.4869995 121.2080002  83.5350037 119.6930008 121.8300018  81.8529968
 119.6719971 120.0579987  82.1610031  86.1809998  41.0369987  65.5899963
  86.6240005  42.4850006  65.4700012  86.7910004  42.8699989  66.4649963
  85.8199997  43.0589981  65.0339966  87.2429962  40.2570000  66.2929993
  87.0319977  39.1980019  66.2850037  88.1859970  40.4469986  65.8010025
  87.3499985  40.5970001  67.3119965  84.9150009  40.9469986  66.3830032
  84.6110001  39.9160004  66.4909973  85.0540009  41.3590012  67.3720016
  84.1129990  41.4830017  65.8980026  85.9560013  40.4410019  64.2379990
  85.1969986  40.9840012  63.6949997  85.6449966  39.4099998  64.3219986
  86.8730011  40.4720001  63.6679993  87.9319992  42.7879982  64.6829987
  87.9970016  43.8849983  64.5189972  87.8580017  42.3260002  63.6749992
  89.6760025  43.0830002  66.6220016  90.4479980  44.2680016  66.1350021
  90.4290009  42.1080017  67.4700012  89.1039963  42.2970009  65.3399963
  88.3669968  43.5890007  67.4140015  88.5110016  44.5309982  68.4869995
  87.5199966  44.9930000  68.6819992  89.2009964  45.3610001  68.2229996
  88.9889984  43.9039993  69.8379974  90.0339966  43.5639992  69.6780014
  88.1460037  42.7840004  70.1910019  88.6190033  41.9980011  71.1439972
  89.7180023  42.0970001  71.6750031  87.5680008  40.9189987  71.4469986
  87.6949997  40.1230011  70.6829987  86.5540009  41.3569984  71.3320007
  89.0179977  44.9860001  70.9649963  89.6100006  45.8530006  70.5999985
  89.5569992  44.5530014  71.8339996  87.6750031  45.4080009  71.2880020
  87.4599991  45.7290001  72.5630035  88.3290024  45.8919983  73.4049988
  85.9410019  45.8209991  72.7740021  85.4749985  44.8919983  72.3799973
  85.5780029  46.6809998  72.1719971  87.7129974  40.3030014  72.8539963
  88.7490005  39.9339981  73.0100021  87.0390015  39.4210014  72.9059982
  87.3259964  41.2649994  73.9889984  86.3069992  41.6710014  73.8130035
  88.0329971  42.1220016  73.9789963  87.3740005  40.6129990  75.3830032
  87.3669968  41.4199982  76.1480026  88.3280029  40.0550003  75.4909973
  86.1920013  39.6699982  75.6770020  86.0930023  38.9410019  74.8450012
  85.2580032  40.2719994  75.7099991  86.3190002  38.8660011  76.9879990
  87.1880035  38.1790009  76.8960037  85.4069977  38.2410011  77.1009979
  86.5049973  39.7400017  78.2450027  85.6760025  40.4790001  78.2829971
  87.4390030  40.3250008  78.0950012  86.5579987  38.9650002  79.5419998
  85.6259995  38.4440002  79.8059998  87.6159973  38.8479996  80.3720016
  87.5120010  38.2340012  81.2789993  88.9800034  39.4739990  80.1839981
  88.8990021  40.4480019  79.6559982  89.5999985  38.8079987  79.5459976
  89.7779999  39.7249985  81.4840012  90.7949982  40.0719986  81.2040024
  89.9029999  38.7739983  82.0439987  89.1549988  40.7869987  82.4049988
  88.2900009  41.2379990  81.8730011  89.8809967  41.6059990  82.5970001
  88.6579971  40.2319984  83.7480011  88.2590027  39.2070007  83.5889969
  87.8219986  40.8750000  84.0970001  89.7249985  40.2270012  84.8519974
  90.1289978  41.2599983  84.9140015  90.5630035  39.5499992  84.5800018
  89.1900024  39.8650017  86.2429962  88.8369980  38.8120003  86.2450027
  88.3180008  40.5180016  86.4589996  90.2210007  40.0449982  87.3649979
  90.6220016  41.0800018  87.3140030  91.0619965  39.3440018  87.1780014
  89.6610031  39.7869987  88.7639999  90.4609985  39.8670006  89.5309982
  89.2210007  38.7680016  88.8140030  88.8610001  40.5190010  89.0059967
  85.5370026  46.0270004  74.2470016  84.4479980  46.2459984  74.2809982
  86.0670013  46.9119987  74.6589966  85.8050003  44.8170013  75.1539993
  86.8909988  44.5830002  75.1320038  85.2570038  43.9269981  74.7789993
  85.3889999  45.1030006  76.6039963  84.2829971  45.1980019  76.6399994
  85.8140030  46.0830002  76.9100037  85.8349991  44.0550003  77.6330032
  85.4720001  43.0489998  77.3310013  85.3509979  44.3079987  78.5999985
  87.3570023  44.0060005  77.8539963  87.7470016  45.0340004  78.0139999
  87.8290024  43.5989990  76.9339981  87.7610016  43.1269989  79.0469971
  88.8109970  42.7830009  78.9400024  87.1139984  42.2229996  79.0289993
  87.5879974  43.7970009  80.4179993  87.3219986  42.9980011  81.1429977
  86.7369995  44.5110016  80.3870010  88.8499985  44.5070000  80.9390030
  89.1419983  45.2919998  80.2089996  89.6819992  43.7729988  81.0039978
  88.6640015  45.1689987  82.3150024  87.8099976  45.8759995  82.2409973
  89.5719986  45.7560005  82.5719986  88.3750000  44.1980019  83.4720001
  89.2549973  43.5460014  83.6539993  87.5260010  43.5429993  83.1829987
  87.9660034  44.9119987  84.7689972  87.0820007  44.3919983  85.1969986
  87.6529999  45.9480019  84.5169983  89.0550003  44.9500008  85.8420029
  88.8450012  45.7659988  86.5670013  90.0120010  45.1980019  85.3339996
  89.1959991  43.6320000  86.6129990  90.2480011  43.5279999  86.9560013
  89.0019989  42.7890015  85.9160004  88.2750015  43.5159988  87.8259964
  88.3899994  42.5200005  88.3059998  87.2160034  43.6360016  87.5149994
  88.5139999  44.3059998  88.5699997  66.0459976 123.8320007  65.0889969
  66.7210007 122.5149994  65.4169998  66.9130020 121.9980011  64.4889984
  66.0360031 121.8980026  65.9800034  64.6729965 123.6409988  64.5339966
  63.9980011 123.2360001  65.2740021  64.2699966 124.5879974  64.2060013
  64.6949997 122.9850006  63.6769981  66.0049973 124.7060013  66.2949982
  67.0230026 124.8949966  66.6029968  65.5390015 125.6549988  66.0709991
  65.4800034 124.2360001  67.1139984  66.8639984 124.5390015  64.0609970
  66.8799973 123.9860001  63.1329994  67.8750000 124.5960007  64.4380035
  66.4909973 125.5360031  63.8790016  68.0609970 122.5899963  66.2040024
  68.4110031 121.5520020  66.3860016  67.8450012 123.0319977  67.1999969
  69.9219971 124.4700012  66.1989975  68.9950027 125.4860001  66.7870026
  70.8960037 124.9919968  65.1890030  69.0759964 123.2990036  65.4889984
  70.7239990 123.7399979  67.3990021  71.6190033 122.6709976  67.0449982
  72.3960037 123.0110016  66.3270035  71.0550003 121.8499985  66.5530014
  72.3840027 122.0339966  68.2730026  72.7470016 121.0419998  67.9309998
  71.5569992 121.8639984  69.4489975  70.5149994 121.0599976  69.2519989
  70.4010010 120.2750015  68.3190002  69.5270004 121.1890030  70.4240036
  70.0520020 121.5540009  71.3330002  69.1490021 120.1640015  70.6259995
  73.6849976 122.8229980  68.6480026  74.2529984 122.9810028  67.7060013
  74.3170013 122.1719971  69.2900009  73.4010010 124.1050034  69.2509995
  73.1770020 124.0039978  70.5709991  73.6859970 123.1679993  71.3059998
  72.1780014 125.0719986  71.0049973  71.4189987 125.1839981  70.2009964
  72.7129974 126.0370026  71.1419983  68.3349991 122.0960007  70.0699997
  68.0429993 121.8960037  69.0169983  68.6380005 123.1630020  70.1429977
  67.0910034 121.8290024  70.9329987  66.8040009 120.7620010  70.8170013
  66.2490005 122.4410019  70.5439987  67.2450027 122.1309967  72.4309998
  67.3740005 123.2249985  72.5770035  68.1549988 121.6309967  72.8249969
  66.0329971 121.6299973  73.2389984  65.9960022 120.5250015  73.1350021
  65.0970001 122.0390015  72.8010025  66.0930023 121.9700012  74.7389984
  67.1510010 121.9100037  75.0699997  65.5110016 121.2070007  75.2969971
  65.5009995 123.3550034  75.0879974  64.4039993 123.2910004  74.9229965
  65.8809967 124.0559998  74.3140030  65.7500000 123.9950027  76.4410019
  65.4189987 125.0439987  76.4609985  66.3160019 123.5380020  77.5790024
  66.3860016 124.2470016  78.4160004  66.8870010 122.1809998  77.9110031
  66.4889984 121.3949966  77.2330017  66.5910034 121.8860016  78.9400024
  68.4240036 122.1460037  77.8160019  68.8750000 122.7720032  78.6159973
  68.7320023 122.5680008  76.8359985  68.9800034 120.7170029  77.8929977
  68.4499969 120.1190033  77.1200027  68.7480011 120.2649994  78.8809967
  70.4860001 120.6230011  77.6080017  70.7610016 121.4140015  76.8779984
  70.6920013 119.6409988  77.1299973  71.3830032 120.7310028  78.8509979
  71.0429993 121.5699997  79.4950027  72.4160004 120.9580002  78.5100021
  71.4420013 119.4300003  79.6660004  71.7379990 118.6060028  78.9830017
  70.4319992 119.1880035  80.0619965  72.4459991 119.4710007  80.8219986
  72.1259995 120.2509995  81.5449982  73.4380035 119.7710037  80.4229965
  72.5999985 118.1419983  81.5579987  72.9779968 117.3619995  80.8639984
  71.6179962 117.8079987  81.9570007  73.3130035 118.2490005  82.4029999
  71.4889984 124.6480026  72.3089981  72.2030029 124.7419968  73.1549988
  71.1890030 123.5810013  72.2330017  70.2249985 125.4599991  72.5910034
  69.5189972 125.3270035  71.7440033  70.4869995 126.5370026  72.6559982
  69.5309982 125.0260010  73.8840027  70.1719971 125.2699966  74.7580032
  69.3990021 123.9229965  73.8590012  68.1449966 125.6529999  74.0780029
  67.6940002 125.1520004  74.9609985  67.4970016 125.4179993  73.2060013
  68.1449966 127.1650009  74.3420029  67.6640015 127.6800003  73.4820023
  69.1940002 127.5260010  74.4059982  67.4150009 127.5500031  75.6370010
  66.4089966 127.0770035  75.6210022  67.2770004 128.6519928  75.6770020
  68.1460037 127.0960007  76.9100037  69.0619965 127.7050018  77.0619965
  68.4629974 126.0380020  76.7829971  67.2529984 127.1549988  78.1529999
  66.3040009 126.6309967  77.9100037  67.0029984 128.2100067  78.3939972
  67.8649979 126.4629974  79.3769989  68.7269974 127.0569992  79.7480011
  68.2419968 125.4639969  79.0680008  66.8300018 126.2639999  80.4889984
  66.0029984 125.6419983  80.0839996  66.4079971 127.2570038  80.7529984
  67.3600006 125.6029968  81.7689972  67.7829971 124.6029968  81.5299988
  66.4919968 125.4440002  82.4440002  68.4209976 126.4359970  82.5090027
  68.4079971 127.4739990  82.1139984  69.4260025 126.0130005  82.2939987
  68.2229996 126.5250015  84.0279999  69.1500015 126.9580002  84.4599991
  68.1090012 125.5039978  84.4509964  67.0459976 127.3980026  84.4530029
  66.0950012 126.9639969  84.0780029  67.1529999 128.4179993  84.0260010
  66.9850006 127.4769974  85.5599976  54.1609993  49.5800018  67.3089981
  53.2019997  50.7249985  67.0540009  53.5120010  51.5629997  67.6589966
  52.2190018  50.4410019  67.4010010  53.9480019  48.4770012  66.3310013
  52.9290009  48.1209984  66.3600006  54.1419983  48.8520012  65.3369980
  54.6300011  47.6599998  66.5130005  55.5540009  50.0760002  67.1190033
  55.7859993  50.8400002  67.8460007  56.2709999  49.2709999  67.1819992
  55.6100006  50.5359993  66.1429977  54.0070000  49.0880013  68.7099991
  54.7229996  48.3079987  68.9199982  53.0130005  48.7050018  68.8840027
  54.1720009  49.8969994  69.4069977  53.0830002  51.2490005  65.5960007
  52.2470016  51.9790001  65.5520020  52.7890015  50.4070015  64.9339981
  54.7280006  53.2960014  65.5839996  54.1220016  54.2900009  64.6419983
  56.2210007  53.3269997  65.6819992  54.2970009  51.8250008  65.1070023
  54.0589981  53.4690018  67.0400009  54.6469994  54.3359985  68.0159988
  54.3860016  55.3919983  67.7919998  55.7550011  54.2589989  68.0319977
  54.1339989  54.0320015  69.4639969  54.5209999  54.8330002  70.1289978
  54.5810013  52.7330017  69.9209976  55.8429985  52.7070007  70.3339996
  56.5970001  53.6660004  70.4029999  56.2360001  51.2840004  70.7419968
  57.2869987  51.3320007  71.0979996  56.2050018  50.6349983  69.8410034
  52.5769997  54.1349983  69.5559998  52.1180000  53.4910011  68.7760010
  52.3120003  55.1819992  69.2959976  52.0909996  53.8470001  70.8889999
  51.7309990  52.5779991  71.1009979  51.6489983  51.7039986  70.2509995
  51.4070015  52.4010010  72.5879974  50.5279999  53.0379982  72.8229980
  52.2760010  52.7540016  73.1819992  55.3310013  50.7150002  71.8560028
  54.2939987  50.6160011  71.4690018  55.3019981  51.4199982  72.7149963
  55.8019981  49.3409996  72.3590012  56.0200005  48.7010002  71.4779968
  54.9809990  48.8580017  72.9300003  57.0489998  49.4070015  73.2600021
  57.7760010  50.1259995  72.8270035  57.5379982  48.4090004  73.2819977
  56.7260017  49.8089981  74.7080002  56.2229996  48.9500008  75.2020035
  55.9930000  50.6450005  74.7020035  57.9539986  50.2150002  75.5469971
  58.7480011  49.4510002  75.4100037  57.6609993  50.2000008  76.6179962
  58.5379982  51.6129990  75.2300034  58.8779984  51.6279984  74.1729965
  59.4449997  51.7420006  75.8580017  57.5379982  52.7220001  75.4690018
  56.6899986  52.7130013  74.7689972  57.5419998  53.6450005  76.4520035
  56.7169991  54.3720016  76.4850006  58.5750008  53.8380013  77.5370026
  58.8370018  54.9169998  77.5770035  59.5180016  53.2949982  77.3130035
  58.1199989  53.4370003  78.9570007  57.1329994  53.8899994  79.1880035
  58.8530006  53.8680000  79.6719971  58.0709991  51.9189987  79.2020035
  59.0540009  51.4869995  78.9150009  57.2960014  51.4640007  78.5500031
  57.7820015  51.5600014  80.6679993  56.7579994  51.8989983  80.9339981
  58.4930000  52.1250000  81.3089981  57.9230003  50.0610008  80.9810028
  58.9729996  49.7550011  80.7829971  57.2669983  49.4879990  80.2919998
  57.5589981  49.6829987  82.4300003  57.7000008  48.5890007  82.5640030
  56.4830017  49.9020004  82.5960007  58.3629990  50.4259987  83.5090027
  58.1809998  51.5159988  83.3960037  59.4469986  50.2449989  83.3430023
  57.9980011  50.0320015  84.9400024  56.9140015  50.1980019  85.1149979
  58.5699997  50.6469994  85.6679993  58.2260017  48.9589996  85.1210022
  51.0909996  50.9300003  72.9309998  51.9970016  50.3089981  72.7630005
  50.2989998  50.5610008  72.2450027  50.5870018  50.7340012  74.3690033
  50.2900009  49.6710014  74.4980011  49.6769981  51.3549995  74.5110016
  51.5989990  51.0919991  75.4700012  51.0989990  50.9399986  76.4499969
  51.8720016  52.1660004  75.3980026  52.8759995  50.2360001  75.4400024
  53.5830002  50.6320000  74.6800003  52.5839996  49.2140007  75.1169968
  53.5890007  50.0880013  76.7979965  54.3149986  49.2550011  76.6839981
  52.8590012  49.7799988  77.5770035  54.3959999  51.3110008  77.2730026
  55.0110016  51.6829987  76.4260025  55.1030006  50.9640007  78.0559998
  53.5989990  52.4840012  77.8750000  53.0040016  52.9780006  77.0770035
  54.3320007  53.2319984  78.2460022  52.6629982  52.0970001  79.0329971
  53.2130013  51.4319992  79.7320023  51.8009987  51.5279999  78.6220016
  52.1370010  53.3030014  79.8310013  51.6809998  54.0449982  79.1409988
  53.0029984  53.7890015  80.3300018  51.1030006  52.8989983  80.8939972
  51.5079994  52.0499992  81.4850006  50.1850014  52.5419998  80.3799973
  50.7179985  54.0079994  81.8880005  49.8849983  53.6209984  82.5130005
  50.3489990  54.9080009  81.3499985  51.8580017  54.3979988  82.8420029
  52.5970001  55.0400009  82.3170013  52.3759995  53.4650002  83.1520004
  51.3590012  55.0810013  84.1169968  50.6119995  54.4080009  84.5899963
  50.8330002  56.0219994  83.8479996  52.4350014  55.3870010  85.1510010
  53.2379990  56.0159988  84.7099991  52.8759995  54.4350014  85.5149994
  51.9910011  55.9210014  86.0179977  95.2450027  41.7299995  66.9960022
  96.0100021  41.0890007  65.8450012  95.3639984  41.0680008  64.9800034
  96.2180023  40.0620003  66.1029968  94.8339996  43.1119995  66.5999985
  95.7089996  43.6269989  66.2320023  94.1169968  43.0789986  65.7939987
  94.4020004  43.6520004  67.4300003  94.0189972  40.9370003  67.3199997
  93.4580002  41.3989983  68.1200027  93.3619995  40.8759995  66.4649963
  94.2689972  39.9309998  67.6200027  96.1179962  41.8110008  68.2050018
  96.4000015  40.8260002  68.5459976  95.6230011  42.3359985  69.0080032
  97.0199966  42.3549995  67.9660034  97.3499985  41.7529984  65.4039993
  97.8119965  41.0859985  64.6449966  98.0309982  41.7789993  66.2809982
  98.4280014  43.9879990  64.5759964  97.9459991  45.3549995  64.2089996
  99.3119965  43.3269997  63.5660019  97.1490021  43.0569992  64.8460007
  99.1940002  44.0569992  65.9879990  98.4820023  44.5519981  67.1320038
  97.4219971  44.2179985  67.1460037  98.4899979  45.6629982  67.1259995
  99.1119995  44.0789986  68.4810028 100.1729965  44.4059982  68.4660034
  99.0370026  42.6399994  68.5810013  99.7480011  42.0960007  69.5589981
 100.5390015  42.6879997  70.2809982  99.4410019  40.5890007  69.6039963
 100.0350037  40.1170006  68.7919998  98.3629990  40.4280014  69.3880005
  98.4089966  44.7849998  69.6849976  98.4970016  45.8779984  69.5059967
  98.9520035  44.5499992  70.6250000  97.0240021  44.3899994  69.7969971
  96.3629990  45.0610008  70.7429962  96.8170013  45.9840012  71.3990021
  94.9290009  44.5270004  70.8320007  94.5279999  44.4869995  69.7959976
  94.3259964  45.2509995  71.4199982  99.8150024  39.9399986  70.9530029
 100.8389969  40.2610016  71.2409973  99.8450012  38.8370018  70.8290024
  98.8440018  40.2599983  72.0989990  98.6350021  41.3510017  72.1299973
  99.3479996  39.9990005  73.0540009  97.5210037  39.4760017  72.0500031
  97.7279968  38.4059982  71.8379974  96.8929977  39.8769989  71.2259979
  96.7529984  39.5680008  73.3779984  96.7020035  40.6409988  73.6610031
  97.3199997  39.0379982  74.1729965  95.3130035  39.0349998  73.3270035
  95.3130035  37.9529991  73.0739975  94.7949982  39.5690002  72.5019989
  94.5169983  39.2960014  74.6269989  93.4390030  39.2239990  74.3679962
  94.6969986  40.3520012  74.9199982  94.7969971  38.3370018  75.7639999
  94.4570007  37.3079987  75.5749969  95.3639984  38.6049995  76.9589996
  95.4729996  37.7809982  77.6790009  95.9209976  39.9230003  77.4400024
  95.9700012  40.6559982  76.6070023  96.9680023  39.7830009  77.7839966
  95.1370010  40.6010017  78.5849991  95.1849976  39.9739990  79.5009995
  94.0709991  40.7039986  78.2890015  95.7009964  41.9990005  78.8880005
  95.6949997  42.5670013  77.9329987  96.7630005  41.9129982  79.2040024
  94.9309998  42.8400002  79.9199982  93.8420029  42.8320007  79.6999969
  95.2789993  43.8860016  79.7870026  95.1910019  42.5019989  81.3970032
  95.3320007  43.4710007  81.9229965  96.1360016  41.9300003  81.5210037
  94.0220032  41.8199997  82.1200027  94.0520020  40.7220001  81.9530029
  93.0709991  42.2089996  81.6989975  94.0120010  42.1419983  83.6190033
  93.9800034  43.2480011  83.7220001  94.9670029  41.8129997  84.0820007
  92.8290024  41.5800018  84.3919983  91.8830032  41.9700012  83.9580002
  92.8769989  41.8860016  85.4589996  92.8089981  40.4710007  84.3420029
  94.8379974  43.1209984  71.4629974  95.6019974  42.4459991  71.0240021
  93.8420029  42.7029991  71.2030029  94.9589996  43.0989990  72.9960022
  94.7129974  42.0709991  73.3379974  94.2180023  43.7910004  73.4499969
  96.3679962  43.4309998  73.5029984  96.5780029  44.5120010  73.3580017
  97.0970001  42.8510017  72.8990021  96.6029968  43.0979996  74.9789963
  96.3209991  42.0369987  75.1559982  95.9459991  43.7270012  75.6169968
  98.0680008  43.2939987  75.3830032  98.3710022  44.3320007  75.1250000
  98.6989975  42.5999985  74.7880020  98.3489990  43.0699997  76.8750000
  98.0599976  42.0369987  77.1640015  97.7200012  43.7709999  77.4639969
  99.8239975  43.3160019  77.2200012 100.0979996  44.3009987  76.7860031
 100.4599991  42.5439987  76.7369995 100.1439972  43.3919983  78.7190018
  99.4759979  44.1370010  79.2009964 101.1859970  43.7639999  78.8170013
 100.0690002  42.0629997  79.4830017 100.6399994  41.2960014  78.9169998
  99.0139999  41.7229996  79.5520020 100.6839981  42.1739998  80.8880005
 101.7119980  42.5849991  80.7929993 100.7699966  41.1599998  81.3330002
  99.8919983  43.0519981  81.8659973  98.9069977  42.5760002  82.0630035
  99.7040024  44.0449982  81.4059982 100.6250000  43.2719994  83.1949997
 101.5670013  43.8230019  82.9919968 100.8949966  42.2859993  83.6299973
  99.7890015  44.0429993  84.2160034  98.8759995  43.4379997  84.4010010
  99.4629974  45.0040016  83.7630005 100.4680023  44.3170013  85.5559998
 100.8590012  43.3740005  85.9940033  99.7399979  44.7669983  86.2639999
 101.3059998  45.0359993  85.4319992 103.3919983  44.0559998  66.2500000
 103.3820038  45.3600006  65.4680023 102.5149994  45.9300003  65.7669983
 103.2519989  45.1300011  64.4209976 102.1429977  43.2709999  65.9950027
 102.1579971  42.3470001  66.5550003 101.2539978  43.8149986  66.2770004
 102.0429993  43.0260010  64.9479980 104.5709991  43.2330017  65.8430023
 104.4530029  42.8540001  64.8389969 105.4459991  43.8660011  65.8519974
 104.7070007  42.4099998  66.5299988 103.5080032  44.3180008  67.7160034
 102.6409988  44.8400002  68.0930023 104.3889999  44.9109993  67.9120026
 103.6179962  43.3810005  68.2419968 104.6330032  46.2840004  65.5800018
 104.8519974  46.4589996  66.6549988 104.3450012  47.2599983  65.1330032
 107.0630035  46.6730003  64.6900024 106.8160019  47.5610008  63.5120010
 108.2789993  45.8079987  64.5920029 105.7779999  45.7350006  64.9130020
 107.1139984  47.5789986  66.0100021 108.3259964  47.7999992  66.7409973
 108.1650009  48.6699982  67.4130020 109.1699982  48.0670013  66.0690002
 108.7799988  46.6049995  67.6569977 109.1920013  45.8339996  66.9710007
 107.6539993  46.0589981  68.3840027 107.8600006  44.8440018  68.8860016
 108.8860016  44.1879997  68.7590027 106.6169968  44.3380013  69.6380005
 106.9810028  43.6510010  70.4309998 106.0039978  43.7560005  68.9169998
 109.9449997  47.0449982  68.6090012 110.7689972  47.4000015  67.9530029
 110.3470001  46.1720009  69.1660004 109.5479965  48.1310005  69.4729996
 109.0059967  47.7729988  70.6419983 109.0699997  46.6590004  71.1419983
 108.2689972  48.9920006  71.2109985 107.4069977  49.1889992  70.5390015
 108.9540024  49.8660011  71.1750031 105.7829971  45.4690018  70.2760010
 105.3160019  46.0849991  69.4769974 106.4649963  46.1199989  70.8619995
 104.6900024  44.9420013  71.2160034 105.1729965  44.4029999  72.0589981
 104.0510025  44.2159996  70.6699982 103.7939987  46.0550003  71.7890015
 103.0790024  45.5919991  72.5029984 103.2009964  46.5060005  70.9649963
 104.5729980  47.1759987  72.5019989 105.2220001  47.6669998  71.7460022
 105.2389984  46.7439995  73.2789993 103.7020035  48.2799988  73.1250000
 102.7809982  48.4239998  72.5210037 104.2799988  49.2270012  73.0719986
 103.3479996  48.0800018  74.6129990 102.8290024  49.0029984  74.9489975
 104.3020020  48.0200005  75.1780014 102.4540024  46.8950005  74.8789978
 101.6999969  46.7140007  74.0989990 102.5070038  46.0600014  75.9339981
 101.7860031  45.2309990  75.9840012 103.4479980  46.1459999  77.1119995
 104.2570038  46.8870010  76.9390030 103.9469986  45.1660004  77.2730026
 102.7300034  46.5390015  78.4140015 102.0500031  45.7179985  78.7249985
 102.1070023  47.4430008  78.2440033 103.6940002  46.8549995  79.5680008
 104.2829971  47.7509995  79.2770004 104.4059982  46.0159988  79.7200012
 102.9560013  47.1629982  80.8789978 101.9240036  47.4809990  80.6190033
 103.4449997  48.0200005  81.3889999 102.8730011  45.9980011  81.8690033
 102.6610031  45.0499992  81.3290024 102.0149994  46.1860008  82.5490036
 104.1230011  45.8470001  82.7480011 104.2939987  46.8069992  83.2799988
 105.0120010  45.6399994  82.1159973 103.9599991  44.7319984  83.7829971
 103.8769989  43.7630005  83.2450027 102.9950027  44.8940010  84.3089981
 105.0699997  44.6489983  84.8190002 106.0410004  44.4609985  84.3119965
 104.8799973  43.8149986  85.5279999 105.1490021  45.5960007  85.3929977
 107.7570038  48.7970009  72.6480026 107.2580032  47.8079987  72.7379990
 106.9909973  49.5750008  72.8539963 108.8539963  48.9290009  73.7109985
 109.3629990  49.9090004  73.5879974 109.6139984  48.1349983  73.5459976
 108.3270035  48.8370018  75.1559982 107.6869965  49.7239990  75.3479996
 109.1900024  48.8919983  75.8539963 107.5029984  47.5750008  75.4769974
 106.5930023  47.5699997  74.8389969 107.1610031  47.6320000  76.5329971
 108.2549973  46.2509995  75.2630005 109.1299973  46.2099991  75.9469986
 108.6399994  46.2330017  74.2210007 107.3809967  44.9980011  75.4499969
 107.9810028  44.1010017  75.1839981 106.5360031  45.0620003  74.7320023
 106.7969971  44.7960014  76.8600006 106.1439972  43.8969994  76.8379974
 106.1559982  45.6669998  77.1169968 107.8410034  44.6129990  77.9720001
 108.3870010  45.5690002  78.1200027 108.5780029  43.8450012  77.6510010
 107.2259979  44.1640015  79.3079987 106.6920013  43.2039986  79.1460037
 106.4779968  44.9140015  79.6429977 108.2740021  43.9679985  80.4120026
 108.7050018  44.9539986  80.6859970 109.1009979  43.3419991  80.0120010
 107.7320023  43.2820015  81.6750031 107.3560028  42.2729988  81.4039993
 106.8799973  43.8660011  82.0830002 108.8000031  43.1409988  82.7649994
 109.1500015  44.1609993  83.0339966 109.6679993  42.5760002  82.3629990
 108.3320007  42.4500008  84.0429993 108.2850037  41.3530006  83.8720016
 107.3050003  42.8079987  84.2679977 109.2180023  42.7249985  85.2460022
 109.2529984  43.8180008  85.4440002 110.2610016  42.4010010  85.0419998
 108.8440018  42.2070007  86.1539993  76.7350006 124.1439972  65.2839966
  76.4769974 122.6500015  65.1640015  75.4179993 122.4960022  65.0169983
  76.7320023 122.1750031  66.0999985  76.6230011 124.7910004  63.9389992
  75.6320038 124.6640015  63.5289993  76.8330002 125.8479996  63.9980011
  77.3310013 124.3369980  63.2610016  75.7490005 124.7979965  66.1979980
  74.7480011 124.7200012  65.8020020  75.7679977 124.3519974  67.1809998
  75.9670029 125.8519974  66.2949982  78.1220016 124.3570023  65.7919998
  78.8010025 123.8229980  65.1429977  78.2419968 123.9479980  66.7839966
  78.3850021 125.4039993  65.7969971  77.2190018 121.8759995  64.0329971
  76.8610001 122.2600021  63.0540009  76.9029999 120.8119965  64.0739975
  79.5459976 120.9820023  64.9020004  80.7210007 121.7300034  65.4449997
  79.8539963 119.8199997  64.0139999  78.6399994 122.0149994  64.0849991
  78.6009979 120.5000000  66.1060028  79.1220016 119.5839996  67.0790024
  80.1760025 119.8150024  67.3470001  79.0899963 118.5459976  66.6849976
  78.3059998 119.6159973  68.4110031  77.2740021 119.2789993  68.1780014
  78.3209991 120.9410019  68.9810028  77.3030014 121.7160034  68.6439972
  76.3410034 121.3860016  67.9629974  77.4319992 123.1110001  69.2829971
  76.9619980 123.0749969  70.2900009  76.8270035 123.7959976  68.6510010
  78.8700027 118.5930023  69.4540024  79.9769974 118.6900024  69.4359970
  78.6250000 117.5599976  69.1240005  78.4169998 118.8330002  70.8050003
  77.1019974 118.7050018  70.9909973  76.3050003 118.2419968  70.1869965
  76.7160034 119.2620010  72.3619995  77.4820023 118.9629974  73.1100006
  75.7470016 118.7969971  72.6419983  78.8759995 123.6539993  69.3570023
  78.8410034 124.7649994  69.3629990  79.4349976 123.3479996  68.4459991
  79.6539993 123.2099991  70.6080017  80.7220001 123.4850006  70.4729996
  79.6090012 122.1050034  70.7139969  79.1650009 123.8539963  71.9120026
  78.0849991 123.6460037  72.0709991  79.2880020 124.9550018  71.8219986
  79.9449997 123.3639984  73.1389999  81.0240021 123.3369980  72.8730011
  79.6309967 122.3310013  73.4000015  79.7809982 124.2929993  74.3499985
  78.7300034 124.2809982  74.7099991  79.9919968 125.3249969  73.9950027
  80.7689972 124.0100021  75.5009995  80.9339981 124.9820023  76.0120010
  81.7519989 123.7239990  75.0699997  80.3030014 122.9869995  76.5070038
  80.5110016 121.9369965  76.2549973  79.6910019 123.2789993  77.6709976
  79.3740005 122.4580002  78.3310013  79.2890015 124.6589966  78.1320038
  79.0130005 125.2959976  77.2649994  80.1559982 125.1500015  78.6250000
  78.1230011 124.7060013  79.1429977  77.2360001 124.1600037  78.7559967
  77.8320007 125.7730026  79.2419968  78.5179977 124.1930008  80.5339966
  79.5299988 124.6019974  80.7409973  78.5960007 123.0849991  80.5329971
  77.6179962 124.6589966  81.6880035  76.7500000 123.9739990  81.8020020
  77.2269974 125.6750031  81.4670029  78.3870010 124.7200012  83.0139999
  79.2720032 125.3809967  82.8909988  78.7659988 123.7030029  83.2519989
  77.5849991 125.2160034  84.2200012  76.6679993 124.5960007  84.3170013
  77.2750015 126.2710037  84.0660019  78.3919983 125.0889969  85.5120010
  78.7450027 124.0370026  85.5839996  79.2910004 125.7360001  85.4260025
  77.6600037 125.4400024  86.7949982  78.3010025 125.2360001  87.6790009
  76.7389984 124.8259964  86.8860016  77.3720016 126.5130005  86.8030014
  76.5640030 120.7939987  72.3089981  75.9800034 121.0640030  71.4029999
  77.5670013 121.2630005  72.2190018  75.8219986 121.3789978  73.5210037
  74.8180008 120.9069977  73.5859985  75.6669998 122.4660034  73.3479996
  76.5319977 121.2040024  74.8740005  77.5039978 121.7419968  74.8460007
  76.7379990 120.1269989  75.0510025  75.6869965 121.7480011  76.0380020
  74.7549973 121.1480026  76.1080017  75.3960037 122.7939987  75.8030014
  76.3669968 121.7419968  77.4160004  75.6220016 122.0930023  78.1620026
  77.1869965 122.4919968  77.3939972  76.9380035 120.3949966  77.8889999
  77.8010025 120.1060028  77.2519989  76.1510010 119.6190033  77.7699966
  77.3659973 120.4179993  79.3669968  76.4919968 120.7340012  79.9769974
  78.1600037 121.1839981  79.4970016  77.8769989 119.0790024  79.9309998
  78.2030029 119.2570038  80.9779968  78.7639999 118.7429962  79.3519974
  76.8219986 117.9580002  79.9390030  76.5589981 117.7160034  78.8870010
  75.9000015 118.3359985  80.4309998  77.2679977 116.6569977  80.6330032
  78.2559967 116.3489990  80.2300034  76.5459976 115.8529968  80.3779984
  77.3659973 116.7409973  82.1669998  78.0490036 117.5690002  82.4540024
  77.8150024 115.7959976  82.5400009  76.0210037 116.9169998  82.8880005
  75.3799973 116.0380020  82.6630020  75.5009995 117.8209991  82.5049973
  76.1709976 117.0550003  84.4069977  76.6940002 118.0110016  84.6230011
  76.8199997 116.2310028  84.7740021  74.8460007 117.0279999  85.1650009
  74.3059998 116.0759964  84.9769974  74.2009964 117.8710022  84.8349991
  75.0220032 117.1240005  86.2570038  86.2669983  51.1049995  63.8559990
  85.0289993  51.9329987  64.1460037  84.2089996  51.5289993  63.5719986
  85.1959991  52.9360008  63.7820015  86.1760025  49.7960014  64.5680008
  85.2819977  49.2570000  64.2939987  87.0419998  49.1829987  64.3649979
  86.1529999  50.0089989  65.6269989  86.4359970  50.8730011  62.3899994
  87.3259964  50.2910004  62.2019997  85.5940018  50.3330002  61.9840012
  86.5319977  51.8100014  61.8600006  87.4720001  51.8009987  64.3970032
  87.6320038  52.7500000  63.9090004  88.3539963  51.1879997  64.2880020
  87.2990036  51.9760017  65.4489975  84.5609970  52.0289993  65.6289978
  84.2549973  51.0110016  65.9520035  83.6429977  52.6539993  65.6529999
  85.9869995  51.8610001  67.8369980  86.7129974  50.5979996  67.4899979
  84.7870026  51.6949997  68.7190018  85.5439987  52.6220016  66.4820023
  87.0230026  52.8849983  68.5439987  87.5510025  53.9560013  67.7500000
  86.7289963  54.6129990  67.3960037  88.0589981  53.5519981  66.8479996
  88.5510025  54.9189987  68.5000000  88.8939972  55.6310005  67.7190018
  89.7149963  54.2849998  69.0770035  90.5350037  53.6640015  68.2360001
  90.4619980  53.6819992  67.0159988  91.7030029  53.0540009  69.0319977
  91.5609970  53.2540016  70.1149979  92.6279984  53.5779991  68.7080002
  87.8369980  55.8230019  69.5670013  86.8809967  56.1660004  69.1149979
  88.4800034  56.7140007  69.7320023  87.6100006  55.1479988  70.8249969
  86.8629990  55.8330002  71.6930008  86.3529968  56.9259987  71.4769974
  86.8440018  55.0750008  73.0289993  87.9000015  54.9500008  73.3499985
  86.4069977  54.0680008  72.8560028  91.8679962  51.5379982  68.7839966
  92.7229996  51.1720009  69.3929977  92.1279984  51.3660011  67.7170029
  90.6279984  50.6980019  69.1320038  90.8619995  49.6230011  68.9729996
  89.8160019  50.9690018  68.4250031  90.0999985  50.8979988  70.5609970
  89.9029999  51.9830017  70.6989975  90.8590012  50.5929985  71.3119965
  88.7699966  50.1739998  70.8239975  88.9369965  49.0999985  71.0520020
  88.1729965  50.2340012  69.8889999  87.9369965  50.8540001  71.9229965
  86.8750000  50.5470009  71.8150024  87.9609985  51.9480019  71.7310028
  88.4380035  50.6010017  73.3610001  88.4020004  51.5740013  73.8960037
  89.5100021  50.3100014  73.3359985  87.6210022  49.5649986  74.0940018
  87.9779968  48.5289993  74.0009995  86.5039978  49.8110008  74.8079987
  86.0029984  48.9710007  75.3119965  85.8590012  51.1570015  75.0510025
  84.8830032  51.2019997  74.5230026  86.4710007  51.9990005  74.6640015
  85.5930023  51.4179993  76.5449982  84.9430008  50.6080017  76.9420013
  85.0309982  52.3699989  76.6470032  86.8570023  51.5209999  77.4110031
  87.3619995  52.4910011  77.2099991  87.5599976  50.7060013  77.1340027
  86.5609970  51.3839989  78.9100037  85.9840012  50.4440002  79.0439987
  85.9209976  52.2239990  79.2529984  87.8359985  51.3170013  79.7630005
  88.2959976  52.3279991  79.8069992  88.5609970  50.6409988  79.2610016
  87.6190033  50.7879982  81.1910019  86.9530029  51.4790001  81.7509995
  88.6019974  50.7849998  81.7080002  87.0329971  49.3670006  81.2429962
  87.4980011  48.7570000  80.4390030  85.9440002  49.4259987  81.0299988
  87.2460022  48.6450005  82.5680008  88.3209991  48.3989983  82.7030029
  86.6719971  47.6949997  82.5960007  86.9260025  49.2809982  83.4209976
  86.0589981  55.8059998  74.1380005  84.9729996  55.7570000  73.9069977
  86.3519974  56.8769989  74.1740036  86.3180008  55.1940002  75.5199966
  87.3860016  55.3450012  75.7829971  86.1380005  54.0989990  75.4739990
  85.4400024  55.7750015  76.6389999  84.3799973  55.5089989  76.4400024
  85.5250015  56.8820000  76.6409988  85.8450012  55.2420006  78.0199966
  86.8889999  55.5610008  78.2289963  85.8270035  54.1310005  77.9940033
  84.9479980  55.7130013  79.1719971  83.9219971  55.3149986  79.0250015
  84.8889999  56.8230019  79.1600037  85.4769974  55.2639999  80.5410004
  86.5230026  55.6220016  80.6589966  85.4879990  54.1539993  80.5699997
  84.6439972  55.7799988  81.7210007  83.5950012  55.4430008  81.5810013
  84.6480026  56.8909988  81.7259979  85.1269989  55.2599983  83.0790024
  86.1689987  55.5960007  83.2679977  85.1399994  54.1500015  83.0380020
  84.2409973  55.6780014  84.2610016  83.1910019  55.4070015  84.0189972
  84.2839966  56.7799988  84.4020004  84.6449966  54.9599991  85.5520020
  85.6510010  55.3089981  85.8700027  84.7369995  53.8829994  85.2959976
  83.6579971  55.1080017  86.7210007  82.6449966  54.8040009  86.3809967
  83.6090012  56.1809998  87.0059967  84.0429993  54.2820015  87.9639969
  83.3479996  54.5229988  88.7959976  85.0630035  54.5950012  88.2740021
  84.0619965  52.7550011  87.7620010  84.6149979  52.5200005  86.8270035
  83.0220032  52.3870010  87.6320038  84.7440033  51.9749985  88.8840027
  85.8160019  52.2639999  88.9420013  84.6940002  50.8839989  88.6809998
  84.2639999  52.1819992  89.8639984  95.3140030  52.6069984  64.6999969
  96.0780029  51.3440018  64.3239975  97.1080017  51.4650002  64.6240005
  96.0879974  51.2410011  63.2490005  93.8880005  52.4819984  64.2710037
  93.4830017  51.5569992  64.6549988  93.2880020  53.3030014  64.6330032
  93.8099976  52.4399986  63.1940002  95.3519974  52.7760010  66.1859970
  94.8259964  53.6679993  66.4940033  94.8880005  51.9210014  66.6549988
  96.3740005  52.8199997  66.5309982  95.9349976  53.8040009  64.0500031
  95.8880005  53.7270012  62.9729996  96.9739990  53.9010010  64.3290024
  95.4199982  54.7089996  64.3349991  95.5820007  49.9959984  64.9169998
  95.3619995  50.1720009  65.9909973  96.4300003  49.2799988  64.8659973
  93.1520004  48.8940010  64.9290009  92.8259964  47.5629997  64.3239975
  92.0800018  49.9300003  64.8030014  94.4710007  49.4550018  64.2009964
  93.5179977  48.7159996  66.4940033  93.9449997  47.4399986  66.9960022
  94.6949997  46.9720001  66.3229980  93.0749969  46.7519989  67.0599976
  94.6159973  47.5190010  68.4179993  94.8889999  46.4799995  68.7040024
  93.7480011  48.0830002  69.4359970  92.8010025  47.2680016  69.8899994
  92.5319977  46.1609993  69.4449997  92.1230011  47.8810005  71.1259995
  91.0299988  47.9080009  70.9270020  92.4879990  48.9220009  71.2649994
  95.9869995  48.2879982  68.3509979  95.9250031  49.0769997  67.5709991
  96.7500000  47.5660019  67.9889984  96.4049988  48.8269997  69.6279984
  95.9649963  50.0740013  69.8690033  95.4980011  50.8390007  69.0380020
  96.1309967  50.4420013  71.3489990  95.5449982  51.3720016  71.5070038
  97.2020035  50.6650009  71.5439987  92.4059982  47.0649986  72.4079971
  93.5039978  47.0029984  72.5680008  92.0250015  46.0289993  72.2809982
  91.7659988  47.6769981  73.6669998  90.6729965  47.7770004  73.4970016
  92.1800003  48.6959991  73.8219986  91.9800034  46.8600006  74.9580002
  91.6090012  45.8240013  74.8040009  91.3669968  47.3180008  75.7630005
  93.4390030  46.8120003  75.4459991  93.8030014  47.8540001  75.5719986
  94.0719986  46.3240013  74.6750031  93.6210022  46.0699997  76.7839966
  93.2539978  45.0309982  76.6439972  92.9919968  46.5429993  77.5680008
  95.0889969  45.9869995  77.2620010  95.7030029  45.6609993  76.3949966
  95.1419983  45.1710014  78.0139999  95.6660004  47.2649994  77.8239975
  95.2620010  48.1879997  77.3809967  96.6210022  47.3670006  78.7730026
  96.9499969  48.3709984  79.0800018  97.3349991  46.2350006  79.4789963
  98.3789978  46.1829987  79.1009979  96.8759995  45.2480011  79.2549973
  97.4369965  46.3720016  81.0159988  97.9899979  47.3030014  81.2620010
  98.0339966  45.5149994  81.3960037  96.0940018  46.3909988  81.7630005
  95.5000000  45.4850006  81.5149994  95.5199966  47.2739983  81.4100037
  96.2200012  46.5209999  83.2910004  95.2659988  46.9620018  83.6500015
  97.0390015  47.2290001  83.5439987  96.3659973  45.2099991  84.0749969
  97.2519989  44.6370010  83.7269974  95.4639969  44.6080017  83.8330002
  96.4010010  45.4179993  85.5999985  95.6439972  46.1990013  85.8270035
  97.3939972  45.8059998  85.9100037  96.0210037  44.1800003  86.4369965
  95.1210022  43.7150002  85.9810028  95.7330017  44.5320015  87.4509964
  97.0999985  43.1069984  86.5810013  98.0319977  43.5429993  87.0009995
  97.3300018  42.6609993  85.5899963  96.7570038  42.2939987  87.2549973
  95.6340027  49.3260002  72.2870026  96.3389969  48.4690018  72.2220001
  94.6360016  48.9729996  71.9509964  95.5179977  49.7540016  73.7539978
  96.4970016  50.1339989  74.1169968  95.2750015  48.8460007  74.3450012
  94.4290009  50.8069992  74.0159988  93.5070038  50.5200005  73.4660034
  94.7699966  51.7900009  73.6279984  94.0889969  50.9339981  75.5070038
  95.0309982  51.1049995  76.0699997  93.6579971  49.9710007  75.8560028
  93.0950012  52.0610008  75.8330002  92.2080002  51.9620018  75.1699982
  93.5770035  53.0369987  75.6100006  92.6129990  52.0499992  77.2969971
  92.0220032  51.1240005  77.4639969  91.9349976  52.9160004  77.4609985
  93.7470016  52.0909996  78.3359985  94.3679962  52.9990005  78.1760025
  94.3949966  51.2039986  78.1719971  93.2549973  52.0660019  79.7949982
  92.6080017  51.1749992  79.9430008  92.6330032  52.9679985  79.9789963
  94.3850021  52.0270004  80.8399963  93.9349976  52.1049995  81.8529968
  95.0429993  52.9119987  80.7009964  95.2409973  50.7509995  80.7910004
  95.6839981  50.6409988  79.7779999  94.5830002  49.8730011  80.9639969
  96.4010010  50.7099991  81.8010025  97.1100006  51.5369987  81.5839996
  96.9469986  49.7550011  81.6419983  96.0019989  50.7799988  83.2829971
  95.6829987  51.8129997  83.5360031  96.9079971  50.5620003  83.8880005
  94.8850021  49.8149986  83.6869965  94.9000015  48.9420013  83.0000000
  93.9130020  50.3320007  83.5390015  94.9710007  49.3050003  85.1200027
  95.8779984  48.6790009  85.2570038  94.0699997  48.6969986  85.3489990
  95.0169983  50.1580009  85.8310013  71.7310028  53.1469994  63.8289986
  72.7630005  52.8779984  64.9079971  73.2870026  53.7999992  65.1149979
  73.4889984  52.1809998  64.5169983  70.6610031  54.0460014  64.3570023
  70.1999969  53.5779991  65.2139969  71.0729980  54.9959984  64.6650009
  69.9020004  54.2220001  63.6090012  72.3619995  53.7840004  62.6339989
  72.7990036  54.7369995  62.8899994  73.1320038  53.1489983  62.2220001
  71.6210022  53.9519997  61.8660011  71.1019974  51.8569984  63.4189987
  70.2509995  52.0180016  62.7739983  70.7890015  51.3429985  64.3160019
  71.8170013  51.2210007  62.9179993  72.2480011  52.3069992  66.2590027
  71.5169983  53.0180016  66.6989975  73.1259995  52.2709999  66.9390030
  71.4010010  50.1250000  67.4229965  70.8349991  48.8059998  67.0000000
  70.5569992  50.8989983  68.3889999  71.6549988  51.0120010  66.1070023
  72.8629990  49.8950005  68.0630035  73.9270020  49.4370003  67.2070007
  74.0120010  50.0429993  66.2799988  73.7259979  48.3889999  66.8990021
  75.3489990  49.4360008  67.8889999  75.9219971  48.6119995  67.4130020
  75.2839966  49.2159996  69.3140030  74.7419968  48.0480003  69.6250000
  74.6679993  47.0649986  68.8980026  74.2160034  48.0620003  71.0619965
  73.9879990  47.0040016  71.3140030  73.2659988  48.6389999  71.0820007
  76.1839981  50.7239990  67.5709991  76.3059998  50.7540016  66.4680023
  77.2050018  50.5979996  67.9899979  75.5569992  51.9560013  67.9929962
  75.8710022  52.3940010  69.2149963  76.6999969  51.9010010  69.9670029
  75.1399994  53.7190018  69.4800034  75.2600021  54.3450012  68.5699997
  75.6449966  54.2369995  70.3229980  75.2080002  48.6199989  72.0970001
  75.2860031  49.7229996  71.9869995  76.2139969  48.1860008  71.9130020
  74.7890015  48.2700005  73.5279999  74.8270035  47.1640015  73.6309967
  73.7379990  48.5859985  73.6999969  75.6740036  48.8730011  74.6240005
  75.4459991  49.9529991  74.7480011  76.7340012  48.7799988  74.3040009
  75.5370026  48.1360016  75.9649963  76.2750015  48.5439987  76.6880035
  75.8089981  47.0740013  75.7850037  74.1429977  48.1370010  76.6240005
  74.1370010  47.2540016  77.2979965  73.3440018  47.9710007  75.8700027
  73.8560028  49.3820000  77.4830017  73.6429977  50.2439995  76.8140030
  74.8030014  49.6170006  78.0130005  72.7320023  49.1790009  78.4749985
  71.7190018  49.3460007  78.0810013  72.8880005  48.8450012  79.7720032
  72.0019989  48.7700005  80.4189987  74.2129974  48.5849991  80.4410019
  74.6539993  49.5400009  80.7969971  74.9179993  48.1720009  79.6880035
  74.2379990  47.5699997  81.6039963  75.3089981  47.4350014  81.8700027
  73.8539963  46.5859985  81.2580032  73.5000000  47.9770012  82.8860016
  73.8499985  47.2869987  83.6829987  72.4049988  47.8429985  82.7559967
  73.7829971  49.3979988  83.3740005  73.3020020  50.1430016  82.7050018
  74.8860016  49.5149994  83.3050003  73.3840027  49.6409988  84.8339996
  73.5879974  48.7089996  85.4049988  72.2949982  49.8549995  84.8870010
  74.1729965  50.7709999  85.5070038  73.9929962  51.7309990  84.9779968
  75.2519989  50.5299988  85.3970032  73.8539963  50.9199982  87.0000000
  73.9700012  49.9280014  87.4850006  72.7890015  51.2179985  87.1009979
  74.7379990  51.9230003  87.7440033  74.6350021  52.9339981  87.2959976
  75.8069992  51.6259995  87.6959991  74.4359970  51.9790001  88.8119965
  73.6350021  53.5379982  69.7789993  73.2149963  52.6879997  69.1989975
  73.1210022  54.4570007  69.4260025  73.2939987  53.3870010  71.2710037
  72.1969986  53.5299988  71.3799973  73.8010025  54.1930008  71.8430023
  73.6600037  52.0299988  71.8850021  74.7590027  51.8860016  71.8020020
  73.1750031  51.2210007  71.2990036  73.2710037  51.8759995  73.3679962
  73.7580032  52.6730003  73.9700012  73.6689987  50.9000015  73.7190018
  71.7570038  51.8829994  73.6419983  71.2710037  51.1590004  72.9530029
  71.3430023  52.8909988  73.4260025  71.4020004  51.4850006  75.0859985
  71.8840027  52.1930008  75.7939987  71.8190002  50.4749985  75.2860031
  69.8870010  51.4519997  75.3470001  69.4160004  50.8230019  74.5609970
  69.4739990  52.4790001  75.2460022  69.4810028  50.8769989  76.7170029
  69.8939972  49.8499985  76.8160019  68.3730011  50.7980003  76.7460022
  69.9349976  51.7109985  77.9280014  69.6019974  52.7620010  77.7860031
  71.0449982  51.7060013  77.9720001  69.3700027  51.1879997  79.2610016
  69.6650009  50.1259995  79.3960037  68.2610016  51.2249985  79.1979980
  69.7990036  51.9889984  80.5049973  69.1360016  51.6930008  81.3460007
  69.6429977  53.0730019  80.3170013  71.2519989  51.7449989  80.9420013
  71.9339981  51.9609985  80.0930023  71.3590012  50.6689987  81.1989975
  71.7099991  52.5509987  82.1660004  71.6320038  53.6370010  81.9459991
  72.7829971  52.3180008  82.3369980  70.9599991  52.2389984  83.4580002
  69.8949966  52.5410004  83.3730011  71.4120026  52.7879982  84.3119965
  70.9980011  51.1489983  83.6699982  97.2200012 123.7649994  64.0019989
  96.8639984 123.2020035  65.3679962  95.7959976 123.3010025  65.4929962
  97.3040009 123.8330002  66.1259995  98.7020035 123.8170013  63.8279991
  99.1110001 122.8450012  64.0589981  98.9720001 124.0899963  62.8190002
  99.1490021 124.5220032  64.5130005  96.6200027 122.9100037  62.9329987
  95.5490036 122.8479996  63.0600014  96.8290024 123.3119965  61.9519997
  97.0260010 121.9110031  62.9889984  96.6470032 125.1360016  63.8870010
  97.0790024 125.7939987  64.6269989  95.5810013 125.0930023  64.0550003
  96.8330002 125.5479965  62.9059982  97.2679977 121.7409973  65.6989975
  96.8229980 121.0729980  64.9309998  96.7919998 121.4619980  66.6630020
  99.5490036 121.8539963  67.0469971 100.8059998 122.5530014  66.6299973
  99.7549973 120.5599976  67.7699966  98.6829987 121.5520020  65.7269974
  98.6380005 122.8219986  67.9690018  98.9169998 124.2249985  68.0790024
  98.5019989 124.7699966  67.2040024 100.0100021 124.4270020  68.1060028
  98.3040009 124.8789978  69.3710022  98.6090012 125.9479980  69.3610001
  98.7850037 124.2440033  70.5800018 100.0210037 124.5889969  70.9189987
 100.7310028 125.3939972  70.3310013 100.4150009 123.8990021  72.2279968
  99.6259995 124.1050034  72.9820023 101.3679962 124.3440018  72.5839996
  96.7360001 124.8970032  69.3249969  96.3779984 123.8820038  69.0490036
  96.4629974 125.5859985  68.4970016  96.1529999 125.2890015  70.5920029
  94.9420013 125.8509979  70.5260010  94.3450012 126.1279984  69.4950027
  94.3889999 126.1969986  71.9209976  93.2809982 126.1579971  71.8570023
  94.6839981 127.2490005  72.1240005 100.5800018 122.3789978  72.0599976
 101.3779984 122.1449966  71.3229980  99.6279984 121.9589996  71.6729965
 100.8820038 121.6979980  73.3990021 100.1330032 122.0719986  74.1289978
 101.8799973 122.0039978  73.7809982 100.7750015 120.1650009  73.3410034
 101.7779999 119.7570038  73.0950012 100.0849991 119.8840027  72.5169983
 100.2460022 119.5049973  74.6289978 100.4229965 118.4089966  74.5680008
  99.1490021 119.6729965  74.6829987 100.8600006 120.0660019  75.9209976
 100.4869995 121.1070023  76.0260010 101.9670029 120.0970001  75.8330002
 100.4789963 119.2799988  77.1949997 100.9960022 118.2979965  77.1429977
  99.3919983 119.0660019  77.1149979 100.7170029 119.8919983  78.5619965
 100.3840027 119.2279968  79.3730011 101.2089996 121.0899963  78.9499969
 101.1780014 121.3089981  80.0270004 101.7310028 122.2529984  78.1409988
 102.2119980 121.8889999  77.2080002 102.5270004 122.7809982  78.7089996
 100.6589966 123.2890015  77.7330017  99.7979965 122.7779999  77.2529984
 101.1259995 123.9390030  76.9619980 100.1449966 124.2269974  78.8440018
  99.6399994 125.0739975  78.3330002 101.0130005 124.6350021  79.4039993
  99.1129990 123.6340027  79.8190002  99.6129990 122.9089966  80.4960022
  98.3629990 123.0810013  79.2139969  98.3960037 124.7020035  80.6650009
  98.0380020 125.5130005  79.9960022  99.1449966 125.1439972  81.3570023
  97.1890030 124.2279968  81.5000000  96.8059998 125.0950012  82.0790024
  97.5299988 123.4589996  82.2249985  96.0179977 123.6360016  80.7030029
  96.4120026 122.8789978  79.9919968  95.5559998 124.4540024  80.1100006
  94.9430008 122.9619980  81.5490036  94.1350021 122.5619965  80.8990021
  94.4980011 123.6640015  82.2860031  95.3919983 122.1090012  82.1009979
  94.8590012 125.3259964  73.1080017  94.6559982 125.9300003  74.0179977
  95.9570007 125.1579971  73.0869980  94.1060028 123.9960022  73.2699966
  94.8300018 123.1589966  73.1650009  93.3730011 123.8919983  72.4420013
  93.3679962 123.8649979  74.6119995  92.3320007 124.2490005  74.5019989
  93.8740005 124.5189972  75.3539963  93.3259964 122.4589996  75.2229996
  94.3710022 122.0889969  75.2839966  92.7409973 121.7699966  74.5770035
  92.7480011 122.4599991  76.6449966  91.6610031 122.6839981  76.5810013
  93.2190018 123.2819977  77.2229996  92.9430008 121.1539993  77.4300003
  92.5000000 120.3079987  76.8619995  92.3830032 121.2509995  78.3840027
  94.4010010 120.8030014  77.7770004  94.9229965 121.7009964  78.1719971
  94.9250031 120.4899979  76.8479996  94.4660034 119.6600037  78.8010025
  93.8270035 118.8310013  78.4280014  94.0390015 120.0189972  79.7620010
  95.8590012 119.0869980  79.0950012  96.3870010 118.7939987  78.1630020
  95.6979980 118.1640015  79.6920013  96.7500000 120.0199966  79.9240036
  96.1090012 120.6129990  80.6110001  97.2630005 120.7379990  79.2490005
  97.7829971 119.2460022  80.7519989  98.3550034 118.6019974  80.0490036
  97.2500000 118.5970001  81.4789963  98.7910004 120.1050034  81.5179977
  99.1709976 120.8929977  80.8320007  99.6539993 119.4710007  81.8150024
  98.2220001 120.7730026  82.7679977  97.9209976 119.9899979  83.4970016
  97.3040009 121.3229980  82.4700012  99.1770020 121.7570038  83.4309998
  99.3820038 122.5999985  82.7360001 100.1439972 121.2649994  83.6719971
  98.7399979 122.1579971  84.3700027 101.9570007 112.3529968  65.5979996
 100.6460037 112.8659973  65.0370026  99.9270020 112.9089966  65.8420029
 100.2750015 112.1409988  64.3280029 102.3199997 113.1380005  66.8150024
 101.5960007 112.9909973  67.6039963 103.3020020 112.8700027  67.1750031
 102.3160019 114.1849976  66.5490036 101.8539963 110.9049988  65.9390030
 101.0830002 110.7389984  66.6780014 101.6230011 110.3199997  65.0609970
 102.7949982 110.5449982  66.3280029 103.0419998 112.5360031  64.5899963
 102.8310013 111.9759979  63.6910019 103.9960022 112.2200012  64.9860001
 103.0989990 113.5849991  64.3389969 100.6600037 114.2519989  64.3280029
  99.6179962 114.4700012  64.0100021 101.2570038 114.1510010  63.3969994
 102.3140030 116.2819977  64.7559967 101.7429962 117.5260010  64.1539993
 103.3150024 115.5599976  63.9119987 101.1129990 115.3079987  65.1819992
 103.0139999 116.6520004  66.1559982 102.1829987 117.0820007  67.2460022
 101.4059982 116.3259964  67.4919968 101.6689987 118.0329971  66.9879990
 103.0070038 117.3410034  68.5469971 103.8349991 118.0250015  68.2590027
 103.4919968 116.0780029  69.0569992 104.6549988 116.1340027  69.6969986
 105.3889999 117.1090012  69.7649994 104.9309998 114.7740021  70.3470001
 105.3669968 114.0979996  69.5810013 103.9550018 114.3600006  70.6780014
 102.1350021 118.0859985  69.6129990 101.2689972 117.4479980  69.8919983
 101.7089996 118.9779968  69.1050034 102.9010010 118.5410004  70.7500000
 102.9209976 117.7200012  71.8079987 102.2340012 116.7139969  71.9339981
 103.9710007 118.2129974  72.8069992 104.0159988 119.3219986  72.7760010
 104.9550018 117.8030014  72.4940033 105.8769989 114.8990021  71.5599976
 105.4629974 115.6579971  72.2580032 106.8679962 115.2710037  71.2220001
 106.0820007 113.5859985  72.3379974 106.7419968 113.7910004  73.2080002
 106.6110001 112.8629990  71.6800003 104.7939987 112.9120026  72.8479996
 105.0550003 111.9810028  73.3949966 104.1829987 112.6119995  71.9710007
 103.9309998 113.8000031  73.7549973 103.8099976 114.7919998  73.2679977
 104.4329987 113.9660034  74.7320023 102.5159988 113.2450027  73.9570007
 102.5579987 112.2559967  74.4609985 102.0910034 113.0940018  72.9420013
 101.6169968 114.1979980  74.7649994 101.8840027 115.2409973  74.4889984
 101.8659973 114.0869980  75.8410034 100.1510010 113.9749985  74.4830017
  99.8690033 114.0879974  73.4250031  99.1959991 113.6520004  75.3730011
  98.1630020 113.5230026  75.0179977  99.3809967 113.4380035  76.8539963
 100.3870010 113.0270004  77.0869980  98.6439972 112.6839981  77.2040024
  99.1890030 114.7220001  77.6859970  98.3369980 115.3109970  77.2819977
 100.1019974 115.3489990  77.6090012  98.8769989 114.4339981  79.1630020
  99.6279984 113.7360001  79.5889969  97.8880005 113.9290009  79.1910019
  98.7949982 115.7020035  80.0240021  98.3499985 116.4980011  79.3889999
  99.8160019 116.0309982  80.3119965  97.8909988 115.5879974  81.2639999
  96.9140015 115.1500015  80.9680023  97.6910019 116.6169968  81.6309967
  98.4449997 114.8069992  82.4629974  99.4670029 115.1669998  82.7070007
  98.5329971 113.7330017  82.1959991  97.5490036 114.9759979  83.7009964
  96.5070038 114.7139969  83.4160004  97.5410004 116.0490036  83.9860001
  97.9380035 114.1490021  84.9240036  97.1669998 114.2689972  85.7149963
  98.9110031 114.4929962  85.3369980  98.0179977 113.0699997  84.6729965
 103.6380005 117.7539978  74.2330017 103.5339966 116.6480026  74.2450027
 102.6630020 118.1890030  74.5400009 104.7009964 118.1480026  75.2610016
 104.9110031 119.2360001  75.1829987 105.6389999 117.6039963  75.0220032
 104.3219986 117.8349991  76.7190018 103.5210037 118.5270004  77.0550003
 105.2229996 118.0419998  77.3359985 103.8649979 116.3870010  76.9759979
 104.2549973 115.7350006  76.1650009 102.7559967 116.3519974  76.9240036
 104.3379974 115.7880020  78.3150024 105.4150009 115.5360031  78.2080002
 103.7839966 114.8410034  78.4879990 104.1839981 116.6920013  79.5550003
 103.1389999 117.0670013  79.5950012 104.8550034 117.5699997  79.4459991
 104.4990005 115.9869995  80.8919983 103.6859970 115.2559967  81.0859985
 104.4800034 116.7399979  81.7089996 105.8359985 115.2249985  80.9309998
 106.6589966 115.9280014  80.6760025 105.8229980 114.4349976  80.1500015
 106.1829987 114.5540009  82.2720032 107.1610031 114.0469971  82.1330032
 106.3320007 115.3249969  83.0579987 105.1869965 113.5049973  82.8020020
 104.7200012 112.9580002  81.9550018 104.3730011 114.0220032  83.3550034
 105.8860016 112.4899979  83.7170029 106.7080002 113.0169983  84.2460022
 106.3550034 111.7210007  83.0670013 105.0260010 111.8010025  84.7850037
 105.4660034 110.7969971  84.9660034 103.9869995 111.6569977  84.4179993
 105.0220032 112.5510025  86.1250000 104.3639984 113.4400024  86.0250015
 106.0479965 112.9270020  86.3290024 104.5619965 111.7180023  87.3180008
 105.2590027 110.8740005  87.5059967 103.5500031 111.3010025  87.1259995
 104.5120010 112.3519974  88.2289963  76.7379990  47.6290016  63.5029984
  77.1900024  46.4339981  64.3199997  78.2460022  46.2840004  64.1490021
  76.6790009  45.5559998  63.9529991  77.4700012  48.8510017  63.9459991
  77.3909988  48.9249992  65.0210037  78.5199966  48.7669983  63.7089996
  77.0690002  49.7400017  63.4809990  77.0319977  47.3950005  62.0559998
  76.5019989  46.5270004  61.6899986  76.7279968  48.2480011  61.4669991
  78.0889969  47.2400017  61.9020004  75.2710037  47.8549995  63.6699982
  74.7089996  46.9939995  63.3380013  74.9499969  48.7130013  63.0970001
  75.0419998  48.0309982  64.7099991  77.0000000  46.5120010  65.8570023
  77.1179962  45.4900017  66.2750015  75.9520035  46.8110008  66.0770035
  79.3830032  46.9710007  66.8649979  80.1259995  48.1360016  67.4369965
  80.0390015  46.3110008  65.6920013  77.8990021  47.4469986  66.4649963
  79.1869965  45.8600006  68.0159988  78.1169968  45.9350014  68.9710007
  77.4940033  45.0200005  68.8740005  77.4349976  46.7980003  68.8130035
  78.6090012  45.9879990  70.4560013  77.7200012  45.7060013  71.0589981
  79.0400009  47.3339996  70.7689972  78.8300018  47.7179985  72.0289993
  78.3809967  47.0130005  72.9209976  79.1500015  49.2190018  72.1510010
  78.2020035  49.7700005  71.9700012  79.8860016  49.5070000  71.3700027
  79.7160034  44.9070015  70.7129974  80.6490021  45.1980019  70.1839981
  79.3580017  43.9770012  70.2220001  79.9110031  44.6139984  72.1129990
  80.9280014  45.2330017  72.7119980  81.7770004  45.9049988  72.1389999
  80.9240036  45.0050011  74.2330017  80.3389969  45.8250008  74.7009964
  81.9800034  45.1129990  74.5619965  79.6949997  49.5610008  73.5469971
  78.9660034  49.2229996  74.3140030  79.8010025  50.6629982  73.6470032
  81.0520020  48.9010010  73.8170013  81.8270035  49.3260002  73.1439972
  80.9560013  47.8190002  73.5869980  81.5039978  49.0130005  75.2779999
  80.6669998  48.6650009  75.9209976  81.7080002  50.0750008  75.5319977
  82.7480011  48.1650009  75.5780029  83.6039963  48.5629997  74.9909973
  82.5619965  47.1259995  75.2340012  83.1529999  48.1170006  77.0619965
  83.3649979  49.1539993  77.4000015  84.0960007  47.5390015  77.1610031
  82.0979996  47.5209999  78.0179977  81.1959991  48.1669998  77.9690018
  82.4940033  47.6520004  79.0479965  81.6890030  46.0880013  77.7630005
  81.2710037  45.9150009  76.7600021  81.7419968  45.0449982  78.6169968
  81.3610001  44.0709991  78.2760010  82.2450027  45.0569992  80.0419998
  82.6630020  46.0519981  80.3050003  83.0810013  44.3349991  80.1620026
  81.1900024  44.7599983  81.1309967  80.2509995  45.3180008  80.9280014
  81.6009979  45.1500015  82.0869980  80.8880005  43.2709999  81.3489990
  81.8470001  42.7120018  81.3150024  80.2490005  42.8930016  80.5230026
  80.2279968  42.9550018  82.7040024  80.9209976  43.2690010  83.5139999
  80.0889969  41.8549995  82.7839966  78.8669968  43.6230011  82.9560013
  78.1890030  43.4370003  82.0960007  79.0289993  44.7190018  83.0360031
  78.2009964  43.1160011  84.2460022  78.9940033  42.9749985  85.0110016
  77.7330017  42.1279984  84.0530014  77.1709976  44.0810013  84.8440018
  76.3919983  44.3100014  84.0849991  77.6949997  45.0320015  85.0780029
  76.5049973  43.5629997  86.1179962  75.8310013  44.3380013  86.5410004
  77.2730026  43.3139992  86.8820038  75.9039993  42.6539993  85.9010010
  80.4000015  43.6339989  74.7149963  80.8069992  43.4669991  75.7360001
  80.7819977  42.8170013  74.0660019  78.8679962  43.5589981  74.8330002
  78.4120026  43.6269989  73.8219986  78.5039978  44.4350014  75.4110031
  78.3629990  42.2709999  75.5059967  79.2180023  41.5779991  75.6610031
  77.6500015  41.7690010  74.8180008  77.6409988  42.4889984  76.8470001
  77.2679977  41.5139999  77.2239990  76.7580032  43.1339989  76.6500015
  78.4990005  43.1539993  77.9329987  78.9459991  44.0810013  77.5159988
  79.3389969  42.4780006  78.2030029  77.7360001  43.5390015  79.2160034
  78.4629974  44.0419998  79.8889999  77.3889999  42.6170006  79.7300034
  76.5350037  44.4889984  79.0309982  76.2099991  44.8520012  80.0289993
  75.6940002  43.9090004  78.5950012  76.7829971  45.6990013  78.1100006
  75.8499985  46.2989998  78.0490036  76.9789963  45.3019981  77.0910034
  77.9530029  46.6279984  78.4850006  78.3929977  47.0000000  77.5350037
  78.7450027  46.0559998  79.0130005  77.5449982  47.8559990  79.3109970
  77.1070023  47.5289993  80.2779999  76.7549973  48.4000015  78.7500000
  78.6849976  48.8429985  79.5889969  78.2559967  49.7519989  80.0609970
  79.1630020  49.1459999  78.6330032  79.7630005  48.2859993  80.5220032
  80.2080002  47.3740005  80.0719986  79.2939987  47.9860001  81.4840012
  80.8730011  49.2960014  80.8000031  80.4250031  50.2260017  81.2109985
  81.3509979  49.5579987  79.8320007  81.9410019  48.7980003  81.7570038
  81.4830017  48.4580002  82.7109985  82.6669998  49.6069984  81.9840012
  82.4820023  47.9420013  81.3000031  89.8089981 126.0009995  67.3899994
  89.9469986 124.5380020  67.0309982  88.9629974 124.1050034  66.9339981
  90.4509964 124.0299988  67.8399963  91.1129990 126.5419998  67.8730011
  91.3430023 126.1949997  68.8700027  91.8990021 126.1890030  67.2210007
  91.0999985 127.6220016  67.8649979  89.4100037 126.7900009  66.1869965
  90.1330032 126.6380005  65.4000015  88.4440002 126.4749985  65.8199997
  89.3759995 127.8430023  66.4250031  88.7910004 126.2129974  68.4629974
  88.6949997 127.2679977  68.6740036  89.0810013 125.7160034  69.3779984
  87.8259964 125.8330002  68.1620026  90.7340012 124.2170029  65.7419968
  90.1969986 124.6200027  64.8570023  90.7369995 123.1139984  65.6070023
  93.2939987 123.8379974  66.0770035  94.4700012 124.7149963  66.3219986
  93.4300003 122.8560028  64.9619980  92.0449982 124.7770004  65.7850037
  92.8909988 123.0630035  67.4290009  93.8799973 122.1559982  67.9560013
  94.8919983 122.6149979  67.9309998  93.9199982 121.2210007  67.3570023
  93.6569977 121.7519989  69.4570007  92.9660034 120.8820038  69.4690018
  93.1370010 122.8789978  70.2040024  91.8050003 122.9319992  70.2190018
  91.0459976 121.9919968  70.0169983  91.3089981 124.3580017  70.4929962
  90.5749969 124.5849991  69.6900024  92.1559982 125.0709991  70.3990021
  95.0110016 121.2200012  70.0490036  95.7760010 121.9970016  69.8349991
  95.2770004 120.3079987  69.4739990  94.9830017 120.9410019  71.4729996
  96.1989975 120.5640030  71.9280014  97.1179962 120.1959991  71.2109985
  96.2760010 120.6630020  73.4580002  96.6800003 119.7030029  73.8440018
  95.2529984 120.8219986  73.8600006  90.6090012 124.5220032  71.8580017
  91.3580017 124.3099976  72.6510010  89.7939987 123.7750015  71.9690018
  90.0459976 125.9339981  72.0989990  89.0159988 125.9779968  71.6839981
  90.6600037 126.6849976  71.5579987  89.9980011 126.3339996  73.5879974
  89.6569977 125.4629974  74.1880035  89.2720032 127.1630020  73.7310028
  91.3669968 126.8239975  74.1029968  91.5339966 127.8809967  73.8059998
  92.1429977 126.2070007  73.6009979  91.6240005 126.6269989  75.6070023
  92.7129974 126.7559967  75.7809982  91.3629990 125.5810013  75.8730011
  90.8580017 127.5749969  76.5449982  89.7710037 127.4629974  76.3450012
  91.1230011 128.6250000  76.2939987  91.1669998 127.3190002  78.0070038
  91.9359970 127.9739990  78.4430008  90.6380005 126.3509979  78.7880020
  90.9509964 126.3140030  79.8420029  89.6259995 125.3050003  78.3679962
  89.4339981 125.3730011  77.2750015  88.6610031 125.4820023  78.8889999
  90.0410004 123.8410034  78.6490021  91.1129990 123.6630020  78.4189987
  89.4469986 123.2180023  77.9469986  89.6790009 123.3239975  80.0550003
  89.5690002 122.2190018  80.0230026  88.7050018 123.7750015  80.3389969
  90.6900024 123.6279984  81.1719971  90.9300003 124.7119980  81.1979980
  91.6419983 123.0759964  81.0199966  90.1050034 123.2699966  82.5309982
  89.7639999 122.2129974  82.4940033  89.2060013 123.8939972  82.7239990
  91.0889969 123.4250031  83.6940002  91.5230026 124.4440002  83.6110001
  91.9039993 122.6780014  83.5839996  90.3909988 123.2789993  85.0540009
  89.7949982 122.3410034  85.0179977  89.6969986 124.1419983  85.1419983
  91.3059998 123.2409973  86.2720032  90.6910019 123.1439972  87.1920013
  91.9250031 124.1610031  86.3470001  91.9580002 122.3450012  86.1949997
  97.1989975 121.8349991  73.8649979  96.8300018 122.7539978  73.3619995
  98.2220001 121.6439972  73.4759979  97.2600021 122.1119995  75.3759995
  98.0729980 121.5270004  75.8560028  96.3059998 121.7610016  75.8259964
  97.3949966 123.6039963  75.7330017  97.0889969 124.2149963  74.8570023
  98.4570007 123.8430023  75.9540024  96.4919968 124.0419998  76.9020004
  96.7269974 123.4469986  77.8109970  95.4459991 123.7979965  76.6179962
  96.5719986 125.5410004  77.2480011  96.8720016 126.1060028  76.3399963
  97.3730011 125.6729965  78.0059967  95.2590027 126.1630020  77.7669983
  94.7399979 125.4499969  78.4430008  94.5999985 126.3219986  76.8870010
  95.4300003 127.5120010  78.5019989  94.6470032 128.2180023  78.1529999
  96.4140015 127.9420013  78.2160034  95.3460007 127.4229965  80.0350037
  95.8000031 128.3309937  80.4860001  95.9560013 126.5530014  80.3610001
  93.9179993 127.2669983  80.5849991  93.3600006 126.6019974  79.8919983
  93.4010010 128.2510071  80.6029968  93.8639984 126.6019974  81.9670029
  94.4909973 125.6869965  81.8990021  92.8229980 126.2839966  82.1900024
  94.4069977 127.4280014  83.1389999  93.7760010 128.3309937  83.2880020
  95.4329987 127.7659988  82.8809967  94.4720001 126.6060028  84.4359970
  95.0749969 125.6969986  84.2269974  93.4440002 126.2789993  84.7030029
  95.0899963 127.3479996  85.6269989  94.4410019 128.2129974  85.8799973
  96.0790024 127.7470016  85.3119965  95.2750015 126.4739990  86.8700027
  95.7369995 127.0599976  87.6940002  95.9300003 125.6070023  86.6429977
  94.2939987 126.0869980  87.2210007 100.7089996  44.6529999 112.4960022
 109.2490005  24.4720001 106.2310028 122.6110001 125.5339966 111.6259995
  33.3199997  85.6569977 101.0130005  94.9779968 118.3079987 105.2249985
  34.1940002  86.3639984 108.3219986  43.9249992  68.2659988 103.9020004
  93.7360001  43.1710014 114.7109985 125.3089981 128.0800018 101.6529999
  82.5849991 146.2949982 103.9690018  56.5999985  44.1119995 104.1279984
  93.7149963 128.7649994 111.5739975  82.2429962 125.7649994 103.9869995
  68.1809998 124.0540009 104.9410019 132.1739960 126.2990036 103.6539993
 121.4609985 121.1910019 102.1129990  95.2689972 127.1839981 102.0370026
  55.0449982  68.0059967 104.4229965  86.8259964 105.1579971 101.8499985
  97.7119980 128.6340027 106.9319992  58.0699997  99.7330017 112.3990021
  80.1760025  40.0779991 116.4240036  80.0289993  35.3460007 103.2760010
  41.7470016 113.3619995 106.1019974  54.5900002 112.2129974 113.9560013
 104.1959991  43.0460014 104.7289963  57.9710007  45.1570015 112.6600037
  68.2369995 129.1540070 103.2109985  97.8529968  23.2520008 106.8420029
  94.7399979  47.3769989 104.3690033  76.7979965  46.4370003 115.7789993
 138.6940002 120.1890030 105.9909973  60.7789993  48.0369987 101.0039978
 130.7209930 122.1689987 112.4840012 135.8280029 107.1630020 104.1989975
  70.5039978 117.7369995 103.6760025  62.7140007 139.7180023 104.4739990
  76.4739990  45.5050011 105.6569977  92.0260010 145.9279938 102.8150024
  82.1119995  43.4119987 106.3369980  97.9219971 145.8670044 108.1149979
  37.3279991 110.6549988 101.6460037  32.7999992  64.2699966 102.4970016
  65.4860001 132.6219940 111.9670029  57.9129982 114.9449997 102.2760010
  88.9820023  19.7600002 105.3280029 104.0090027  48.3359985 103.5950012
  74.6090012  23.8230000 110.5390015 115.3359985  55.0870018 101.9390030
  80.5770035  41.7150002 102.0830002 129.7010040  81.4489975 113.9570007
 116.4509964  49.6640015 105.5589981 124.9300003  80.0550003 105.3310013
  65.4169998  46.3260002 103.1510010  84.0189972 111.5609970 102.9189987
 130.3439941  83.1230011 102.9869995  55.3820000 109.6930008 104.3209991
  65.0110016 117.4550018 101.4670029  67.4749985 117.6800003 113.4710007
  67.9049988 124.1660004 117.4130020  96.5350037  42.3930016 106.6050034
  52.5569992  37.0660019 109.9489975  91.3180008  43.2249985 102.3929977
  55.0250015  42.1720009 117.5299988  33.2280006 109.2839966 108.8949966
  78.9739990 117.8539963 109.7180023 113.9530029  29.9650002 103.1589966
  46.0730019  37.7360001 105.4169998 117.7129974  58.4420013 114.1890030
  94.5059967 136.2079926 104.7659988  70.0159988  43.2649994 105.2200012
  27.1340008  96.2289963 107.0889969  28.0890007  82.2030029 109.6699982
  79.9250031 115.5770035 119.1890030  93.7740021 126.9530029 117.6999969
 118.1090012  32.3590012 112.0770035  54.3110008  66.3649979 113.8529968
  67.5130005 136.3690033 117.5479965 136.8939972 109.2419968 115.2669983
  59.8730011 114.5429993 118.8099976  77.3889999 146.6499939 110.0039978
  81.4260025  23.4190006 106.5240021  54.9690018  29.2159996 109.7959976
 105.8970032  48.0530014 111.7040024 121.6900024  81.8239975 114.3099976
  33.0040016  64.3199997 112.2860031 145.3029938  68.6949997 113.3130035
 114.3330002  65.3539963 114.0270004 138.6580048  89.7720032 113.4390030
 137.5610046  62.3129997 109.1370010 131.7310028  71.0009995 118.2330017
  69.4970016 144.3970032 112.1330032  94.7399979 137.7890015 116.5199966
 136.4689941  53.1510010 111.8310013  86.6620026 107.5049973 115.1169968
 106.1289978 145.3670044 110.3259964  47.1819992 114.5699997 118.3659973
 103.4560013  47.9900017 118.3570023 124.8909988  43.0690002 112.3259964
  30.6900005  91.4010010 114.9690018  89.1129990 145.6640015 112.4869995
 143.3690033 112.3130035 106.4140015  88.3040009  24.9200001 115.6330032
  27.8610001  73.6849976 111.2289963  41.3810005  66.9879990 113.7699966
  82.0770035 140.5339966 116.1360016  48.4780006  71.4609985 114.5530014
  80.9110031  31.4589996 117.2490005
   0.0000000   0.0000000   0.0000000  90.0000000  90.0000000  90.0000000
