default_name
   299
 137.9510000  36.4780000  30.0390000 137.4143346  36.5065693  30.8941462
 137.4300671  36.9487394  29.3129603 138.9000690  36.7576584  30.2418762
 138.0410000  35.1140000  29.6160000 137.5772526  35.0285142  28.6332845
 139.4860000  34.5970000  29.5240000 139.4442754  33.5658216  29.1732447
 140.0078766  35.2094907  28.7887450 140.2350000  34.6520000  30.8570000
 140.4283568  35.7018990  31.0770594 139.5734836  34.2376901  31.6178189
 141.5560000  33.8800000  30.8550000 142.0965589  34.1636788  29.9519931
 142.1202460  34.1996009  31.7311171 141.3810000  32.3610000  30.8880000
 140.8393178  32.0813374  31.7915872 140.8134217  32.0456704  30.0124880
 142.7050000  31.6990000  30.8820000 143.2309264  31.9907253  31.6934170
 142.5804591  30.6969471  30.9039006 143.2069277  31.9576717  30.0445893
 137.3490000  34.3200000  30.6710000 137.5730000  34.5320000  31.8610000
 136.4610000  33.3930000  30.2660000 136.2585522  33.2007319  29.2953573
 135.7850000  32.6240000  31.2650000 136.3122241  32.7536901  32.2101531
 134.3140000  33.0290000  31.4630000 133.9759971  32.7911445  32.4716020
 134.1730049  34.0933042  31.2746464 133.4700000  32.2430000  30.4690000
 133.9510000  31.3070000  29.8320000 132.1740000  32.6330000  30.3310000
 131.8223220  33.4078098  30.8751444 135.7950000  31.1940000  30.8430000
 135.6690000  30.8800000  29.6600000 135.9700000  30.2890000  31.8230000
 136.0873538  30.5942811  32.7785788 135.9290000  28.8820000  31.5600000
 135.7046953  28.7569600  30.5006834 137.2190000  28.1120000  31.8830000
 137.6501624  28.5668419  32.7748055 136.9330071  27.0833390  32.1024647
 138.2470000  28.1240000  30.7600000 138.4054533  29.1332588  30.3800132
 139.2012191  27.7001782  31.0729584 137.6780000  27.2660000  29.6390000
 136.6890000  27.6280000  29.0030000 138.3120000  26.0880000  29.3930000
 137.9754163  25.4803869  28.6597748 139.1165043  25.8261983  29.9446648
 134.8960000  28.2910000  32.4450000 134.5850000  28.8230000  33.5090000
 134.3057954  27.2644584  32.1158945 131.4580000  31.8260000  29.3660000
 132.0630000  30.9420000  29.1590000 131.3020000  32.5870000  28.1200000
 130.5660000  31.8790000  27.0310000 131.1210000  30.9730000  26.7760000
 130.4980000  32.7820000  25.7850000 129.9480000  33.6960000  26.0100000
 129.9920000  32.2680000  24.9680000 131.8300000  33.1270000  25.3630000
 132.2920000  33.5200000  26.1080000 129.1700000  31.4850000  27.5530000
 128.5830000  32.3860000  27.7420000 129.2590000  30.6450000  28.8490000
 129.7670000  29.7050000  28.6260000 127.9000000  30.3280000  29.2860000
 127.9140000  29.6900000  30.0080000 130.0660000  31.3990000  29.9430000
 129.5200000  32.3100000  30.1980000 130.2260000  30.5590000  31.1560000
 130.9280000  29.8390000  31.1350000 129.6370000  30.8400000  32.3220000
 128.8250000  31.7510000  32.4390000 129.9940000  29.9250000  33.5100000
 131.0500000  29.6470000  33.4780000 129.7990000  30.4400000  34.4520000
 129.3840000  29.0220000  33.4670000 128.5050000  30.6980000  26.5410000
 127.2560000  31.2340000  26.0060000 127.4280000  32.2080000  25.5450000
 126.2940000  31.4000000  27.1020000 124.9350000  31.8630000  26.6900000
 125.0360000  32.8400000  26.2130000 124.0430000  32.0140000  27.9360000
 123.9230000  31.0510000  28.4350000 123.0560000  32.3830000  27.6570000
 124.6440000  32.9460000  28.8540000 125.5380000  32.6490000  29.0440000
 124.3610000  30.8600000  25.6690000 124.1880000  29.8990000  26.1590000
 125.3090000  30.6640000  24.4630000 125.4000000  31.6110000  23.9280000
 124.7030000  29.6920000  23.5550000 125.1930000  29.6470000  22.7260000
 126.7230000  30.2220000  24.9360000 126.6280000  29.2480000  25.4210000
 127.6570000  30.1170000  23.7880000 128.0460000  30.9700000  23.4240000
 128.1540000  28.9550000  23.3560000 127.7800000  27.8770000  23.8060000
 129.1950000  29.0340000  22.2210000 129.8480000  29.8980000  22.3570000
 129.8080000  28.1310000  22.2110000 128.6790000  29.1210000  21.2630000
 123.1000000  31.3690000  25.1830000 121.9190000  30.5460000  25.4290000
 121.9730000  30.1070000  26.4260000 121.8640000  29.4610000  24.4380000
 120.6480000  28.5870000  24.4930000 120.6820000  28.0280000  25.4300000
 120.6990000  27.5880000  23.3230000 119.8240000  26.9370000  23.3440000
 121.5910000  26.9650000  23.3910000 120.7250000  28.3000000  22.0730000
 119.3540000  29.4400000  24.4680000 119.2190000  29.8770000  23.4780000
 118.2270000  28.5680000  24.7470000 117.4260000  28.9950000  24.4270000
 119.4240000  30.5620000  25.5400000 119.5210000  30.0980000  26.5230000
 120.6650000  31.4560000  25.3110000 120.7050000  32.2410000  26.0680000
 120.6230000  32.0710000  23.9890000 121.4580000  32.5360000  23.8580000
 118.2080000  31.3630000  25.5700000 120.7740000  27.4930000  20.8570000
 121.6710000  26.8740000  20.8390000 120.7940000  28.4760000  19.6520000
 121.5750000  29.2220000  19.8060000 121.1010000  27.7520000  18.4230000
 120.9130000  28.3270000  17.6710000 119.4300000  29.1890000  19.5100000
 119.2730000  29.8150000  20.3910000 118.2640000  28.1740000  19.4090000
 118.3630000  27.5850000  18.4960000 118.2470000  27.2400000  20.6400000
 118.0180000  27.8410000  21.5230000 117.1820000  26.1290000  20.5140000
 117.1600000  25.5150000  21.4140000 116.1940000  26.5720000  20.3850000
 117.4670000  25.2660000  19.3910000 119.5940000  26.6170000  20.8410000
 117.0120000  28.9070000  19.3600000 117.0870000  29.5560000  18.6480000
 119.4560000  30.0680000  18.3440000 116.5360000  24.1670000  19.1530000
 116.4990000  23.4970000  20.0120000 117.0480000  23.3900000  17.9070000
 118.1040000  23.1500000  18.0390000 116.8760000  24.2400000  16.6290000
 117.5200000  25.1180000  16.7070000 115.4120000  24.7150000  16.4520000
 114.7590000  23.8540000  16.3010000 114.9470000  25.5180000  17.6880000
 115.5340000  26.4370000  17.7390000 113.4510000  25.8940000  17.6100000
 113.2100000  26.3000000  16.6270000 112.8340000  25.0090000  17.7690000
 113.1170000  26.8910000  18.5990000 113.4820000  27.7410000  18.3440000
 115.1980000  24.7380000  18.9410000 115.3370000  25.5710000  15.2820000
 115.7290000  25.0850000  14.5450000 117.3170000  23.4730000  15.4670000
 118.2800000  23.4330000  15.4500000 116.3160000  22.1350000  17.7660000
 117.1010000  20.9060000  17.8280000 117.8450000  20.8810000  17.0320000
 116.1120000  19.7180000  17.6550000 115.4920000  19.8890000  16.7740000
 115.2040000  19.5830000  18.8970000 114.5760000  20.4730000  18.9670000
 116.0330000  19.4580000  20.2000000 116.6160000  18.5360000  20.1820000
 116.9760000  20.6730000  20.3630000 116.3620000  21.5640000  20.5070000
 117.9150000  20.5220000  21.5790000 117.3560000  20.1990000  22.4570000
 118.6780000  19.7700000  21.3710000 118.5570000  21.7760000  21.8940000
 117.9220000  22.3780000  22.2900000 117.7930000  20.8690000  19.1240000
 115.1230000  19.4160000  21.3300000 114.4810000  18.7160000  21.1550000
 114.3180000  18.4320000  18.7340000 113.6210000  18.6460000  18.1040000
 116.8530000  18.4780000  17.4490000 116.2440000  17.7360000  17.5450000
 119.3430000  31.5010000  18.5980000 118.4020000  31.7340000  19.0960000
 119.3950000  32.2200000  17.2200000 118.6730000  31.7590000  16.5440000
 120.8080000  32.1130000  16.6040000 121.0140000  31.0620000  16.3900000
 121.8940000  32.6440000  17.5730000 121.7480000  33.7110000  17.7450000
 121.8430000  31.8820000  18.9180000 122.1190000  30.8420000  18.7320000
 122.8200000  32.4710000  19.9580000 123.8010000  32.6360000  19.5110000
 122.4490000  33.4310000  20.3180000 122.9850000  31.5740000  21.0770000
 123.5110000  30.8160000  20.8140000 120.4530000  31.9000000  19.4750000
 123.1980000  32.4400000  16.9680000 123.1710000  32.8350000  16.0870000
 120.8460000  32.8360000  15.3350000 120.3860000  32.3270000  14.6580000
 119.0310000  33.6240000  17.3750000 117.8550000  34.0840000  16.6420000
 117.9920000  33.9530000  15.5680000 117.6720000  35.5950000  16.9640000
 118.6160000  36.1160000  16.8010000 117.2310000  35.7870000  18.4320000
 118.0390000  35.4490000  19.0840000 115.9560000  34.9690000  18.7570000
 115.1170000  35.3400000  18.1660000 116.1840000  33.4680000  18.4650000
 116.9390000  33.0960000  19.1600000 114.8960000  32.6370000  18.6490000
 114.4020000  32.8970000  19.5850000 114.1990000  32.8420000  17.8340000
 115.1920000  31.2240000  18.6780000 115.6170000  30.9960000  19.5070000
 116.7030000  33.2800000  17.0730000 115.6450000  35.1310000  20.1660000
 115.6100000  36.0790000  20.3450000 117.0170000  37.2080000  18.6970000
 117.8680000  37.6560000  18.7720000 116.6770000  36.1780000  16.0700000
 116.4310000  37.0480000  16.4080000 117.4850000  31.4160000  26.8370000
 117.1650000  30.4200000  27.1430000 116.2390000  32.3210000  26.6220000
 115.6990000  31.9870000  25.7350000 116.6650000  33.7940000  26.4320000
 117.2420000  33.8730000  25.5090000 117.5420000  34.2900000  27.6090000
 116.9600000  34.2880000  28.5320000 118.7920000  33.3950000  27.7710000
 119.4180000  33.5190000  26.8850000 119.6220000  33.7750000  29.0160000
 119.7680000  34.8540000  29.0650000 119.1010000  33.4650000  29.9230000
 120.9240000  33.1500000  28.9790000 121.4730000  33.5760000  28.3170000
 118.3930000  31.9550000  27.8600000 117.9720000  35.6490000  27.3300000
 117.1800000  36.1650000  27.1300000 115.4770000  34.6320000  26.2810000
 115.1020000  34.5070000  25.4020000 115.3390000  32.2110000  27.7640000
 113.9940000  31.7110000  27.4970000 113.4700000  32.3610000  26.7960000
 113.2320000  31.6850000  28.8520000 113.3320000  32.6540000  29.3420000
 113.8060000  30.5870000  29.7760000 114.8360000  30.8490000  30.0280000
 113.8030000  29.2010000  29.0850000 112.7760000  28.8870000  28.8890000
 114.6010000  29.2500000  27.7620000 115.6490000  29.4390000  28.0030000
 114.5090000  27.9240000  26.9770000 114.6840000  27.0750000  27.6380000
 113.5140000  27.8130000  26.5440000 115.4940000  27.8790000  25.9220000
 116.3690000  27.7520000  26.2960000 114.1140000  30.3730000  26.9000000
 114.4260000  28.2360000  29.9730000 113.9760000  28.2980000  30.8250000
 113.0450000  30.5480000  31.0220000 113.2860000  31.3010000  31.5740000
 111.8120000  31.4420000  28.6220000 110.8870000  31.9400000  29.6360000
 111.0900000  31.4840000  30.6050000 109.4500000  31.5650000  29.1740000
 109.4160000  30.5040000  28.9240000 109.0450000  32.3930000  27.9340000
 109.6980000  32.1150000  27.1030000 109.1900000  33.9140000  28.1900000
 108.4940000  34.2260000  28.9700000 110.6380000  34.2590000  28.6080000
 111.2960000  34.0550000  27.7600000 110.7920000  35.7440000  29.0020000
 110.3150000  36.3880000  28.2630000 110.3130000  35.9270000  29.9660000
 112.1850000  36.1150000  29.0860000 112.5620000  36.1710000  28.2040000
 111.0720000  33.3940000  29.7500000 108.8740000  34.6260000  26.9650000
 108.0080000  34.3160000  26.6690000 107.6760000  32.0600000  27.5480000
 107.6600000  31.1960000  27.1200000 108.5000000  31.8020000  30.2560000
 107.6060000  31.7590000  29.8960000
