%VERSION  VERSION_STAMP = V0001.000  DATE = 02/27/26  08:54:14                  
%FLAG TITLE                                                                     
%FORMAT(20a4)                                                                   
default_name                                                                    
%FLAG POINTERS                                                                  
%FORMAT(10I8)                                                                   
     299      12     145     164     333     239     613     478       0       0
    1775      14     164     239     478      31      69      87      19       0
       0       0       0       0       0       0       0       0      27       0
       0
%FLAG ATOM_NAME                                                                 
%FORMAT(20a4)                                                                   
N   H1  H2  H3  CA  HA  CB  HB2 HB3 CG  HG2 HG3 CD  HD2 HD3 CE  HE2 HE3 NZ  HZ1 
HZ2 HZ3 C   O   N   H   CA  HA  CB  HB2 HB3 CG  OD1 ND2 HD21C   O   N   H   CA  
HA  CB  HB2 HB3 CG  HG2 HG3 CD  OE1 NE2 HE21HE22C   O   OXT C1  H1  O5  C5  H5  
C6  H62 H61 O6  H6O C4  H4  C3  H3  O3  H3O C2  H2  N2  H2N C2N O2N CME H3M H2M 
H1M O4  C1  H1  O5  C5  H5  C6  H62 H61 O6  H6O C4  H4  C3  H3  O3  H3O C2  H2  
N2  H2N C2N O2N CME H3M H2M H1M O4  C1  H1  O5  C5  H5  C6  H62 H61 O6  C4  H4  
O4  H4O C3  H3  C2  H2  O2  H2O O3  C1  H1  C2  H2  O2  H2O C3  H3  C4  H4  C5  
H5  C6  H62 H61 O6  O5  O4  H4O O3  C1  H1  C2  H2  C3  H3  C4  H4  C5  H5  C6  
H62 H61 O6  H6O O5  O4  H4O O3  H3O O2  C1  H1  C2  H2  C3  H3  C4  H4  C5  H5  
C6  H62 H61 O6  H6O O5  O4  H4O O3  H3O O2  H2O C1  H1  C2  H2  C3  H3  C4  H4  
C5  H5  C6  H62 H61 O6  H6O O5  O4  H4O O3  H3O O2  C1  H1  C2  H2  C3  H3  C4  
H4  C5  H5  C6  H62 H61 O6  H6O O5  O4  H4O O3  H3O O2  H2O C1  H1  C2  H2  C3  
H3  C4  H4  C5  H5  C6  H62 H61 O6  H6O O5  O4  H4O O3  H3O O2  C1  H1  C2  H2  
C3  H3  C4  H4  C5  H5  C6  H62 H61 O6  H6O O5  O4  H4O O3  H3O O2  C1  H1  C2  
H2  C3  H3  C4  H4  C5  H5  C6  H62 H61 O6  H6O O5  O4  H4O O3  H3O O2  H2O 
%FLAG CHARGE                                                                    
%FORMAT(5E16.8)                                                                 
  1.76027418E+00  3.94512795E+00  3.94512795E+00  3.94512795E+00 -2.73334500E-02
  2.15023140E+00  3.86312760E-01  5.15691090E-01  5.15691090E-01 -8.74670400E-02
  2.20489830E-01  2.20489830E-01 -1.10791584E+00  1.15347159E+00  1.15347159E+00
 -3.29823630E-01  2.13383133E+00  2.13383133E+00 -6.85887372E+00  6.16278186E+00
  6.16278186E+00  6.16278186E+00  1.31455672E+01 -1.09570690E+01 -7.57501011E+00
  4.95464337E+00  2.60578890E-01  1.90969704E+00 -3.71917143E+00  1.45231731E+00
  1.45231731E+00  1.29924999E+01 -1.08076461E+01 -1.26371651E+01  7.64607708E+00
  1.08841798E+01 -1.03484442E+01 -6.96274083E+00  4.88539863E+00 -4.09637304E+00
  2.24498736E+00 -1.20996072E+00  8.23647960E-01  8.23647960E-01 -3.82668300E-01
  3.69912690E-01  3.69912690E-01  1.29250774E+01 -1.11119585E+01 -1.74460300E+01
  7.84287792E+00  7.84287792E+00  1.41678382E+01 -1.46543737E+01 -1.46543737E+01
  5.22980010E+00  0.00000000E+00 -7.89025590E+00  3.79023840E+00  0.00000000E+00
  5.26624470E+00  0.00000000E+00  0.00000000E+00 -1.25551647E+01  7.72625520E+00
  5.50313460E+00  0.00000000E+00  3.28001400E+00  0.00000000E+00 -1.24093863E+01
  7.70803290E+00  8.74670400E+00  0.00000000E+00 -1.31565006E+01  5.46669000E+00
  1.18080504E+01 -1.04960448E+01  6.19558200E-01  0.00000000E+00  0.00000000E+00
  0.00000000E+00 -8.63737020E+00  5.22980010E+00  0.00000000E+00 -7.89025590E+00
  3.79023840E+00  0.00000000E+00  5.26624470E+00  0.00000000E+00  0.00000000E+00
 -1.25551647E+01  7.72625520E+00  5.50313460E+00  0.00000000E+00  3.28001400E+00
  0.00000000E+00 -1.24093863E+01  7.70803290E+00  8.74670400E+00  0.00000000E+00
 -1.31565006E+01  5.46669000E+00  1.18080504E+01 -1.04960448E+01  6.19558200E-01
  0.00000000E+00  0.00000000E+00  0.00000000E+00 -8.63737020E+00  5.72180220E+00
  0.00000000E+00 -7.16136390E+00  3.75379380E+00  0.00000000E+00  4.97468790E+00
  0.00000000E+00  0.00000000E+00 -8.29114650E+00  6.35958270E+00  0.00000000E+00
 -1.35938358E+01  8.07247890E+00  4.79246490E+00  0.00000000E+00  4.39157430E+00
  0.00000000E+00 -1.20996072E+01  7.85381130E+00 -8.30936880E+00  7.89025590E+00
  0.00000000E+00  4.46446350E+00  0.00000000E+00 -1.30653891E+01  8.12714580E+00
  4.59201960E+00  0.00000000E+00  5.94046980E+00  0.00000000E+00  5.02935480E+00
  0.00000000E+00  4.84713180E+00  0.00000000E+00  0.00000000E+00 -8.38225800E+00
 -9.23870610E+00 -1.33569459E+01  7.98136740E+00 -8.36403570E+00  7.89025590E+00
  0.00000000E+00  4.46446350E+00  0.00000000E+00  4.59201960E+00  0.00000000E+00
  5.94046980E+00  0.00000000E+00  5.02935480E+00  0.00000000E+00  4.84713180E+00
  0.00000000E+00  0.00000000E+00 -1.25369424E+01  7.68981060E+00 -9.23870610E+00
 -1.33569459E+01  7.98136740E+00 -1.26827208E+01  7.85381130E+00 -8.47336950E+00
  7.89025590E+00  0.00000000E+00  4.46446350E+00  0.00000000E+00  4.59201960E+00
  0.00000000E+00  5.94046980E+00  0.00000000E+00  5.02935480E+00  0.00000000E+00
  4.84713180E+00  0.00000000E+00  0.00000000E+00 -1.25369424E+01  7.68981060E+00
 -9.23870610E+00 -1.33569459E+01  7.98136740E+00 -1.26827208E+01  7.85381130E+00
 -1.30653891E+01  8.12714580E+00  7.89025590E+00  0.00000000E+00  4.46446350E+00
  0.00000000E+00  4.59201960E+00  0.00000000E+00  5.94046980E+00  0.00000000E+00
  5.02935480E+00  0.00000000E+00  4.84713180E+00  0.00000000E+00  0.00000000E+00
 -1.25369424E+01  7.68981060E+00 -9.23870610E+00 -1.33569459E+01  7.98136740E+00
 -1.26827208E+01  7.85381130E+00 -8.47336950E+00  7.89025590E+00  0.00000000E+00
  4.46446350E+00  0.00000000E+00  4.59201960E+00  0.00000000E+00  5.94046980E+00
  0.00000000E+00  5.02935480E+00  0.00000000E+00  4.84713180E+00  0.00000000E+00
  0.00000000E+00 -1.25369424E+01  7.68981060E+00 -9.23870610E+00 -1.33569459E+01
  7.98136740E+00 -1.26827208E+01  7.85381130E+00 -1.30653891E+01  8.12714580E+00
  7.89025590E+00  0.00000000E+00  4.46446350E+00  0.00000000E+00  4.59201960E+00
  0.00000000E+00  5.94046980E+00  0.00000000E+00  5.02935480E+00  0.00000000E+00
  4.84713180E+00  0.00000000E+00  0.00000000E+00 -1.25369424E+01  7.68981060E+00
 -9.23870610E+00 -1.33569459E+01  7.98136740E+00 -1.26827208E+01  7.85381130E+00
 -8.47336950E+00  7.89025590E+00  0.00000000E+00  4.46446350E+00  0.00000000E+00
  4.59201960E+00  0.00000000E+00  5.94046980E+00  0.00000000E+00  5.02935480E+00
  0.00000000E+00  4.84713180E+00  0.00000000E+00  0.00000000E+00 -1.25369424E+01
  7.68981060E+00 -9.23870610E+00 -1.33569459E+01  7.98136740E+00 -1.26827208E+01
  7.85381130E+00 -8.47336950E+00  7.89025590E+00  0.00000000E+00  4.46446350E+00
  0.00000000E+00  4.59201960E+00  0.00000000E+00  5.94046980E+00  0.00000000E+00
  5.02935480E+00  0.00000000E+00  4.84713180E+00  0.00000000E+00  0.00000000E+00
 -1.25369424E+01  7.68981060E+00 -9.23870610E+00 -1.33569459E+01  7.98136740E+00
 -1.26827208E+01  7.85381130E+00 -1.30653891E+01  8.12714580E+00
%FLAG ATOMIC_NUMBER                                                             
%FORMAT(10I8)                                                                   
       7       1       1       1       6       1       6       1       1       6
       1       1       6       1       1       6       1       1       7       1
       1       1       6       8       7       1       6       1       6       1
       1       6       8       7       1       6       8       7       1       6
       1       6       1       1       6       1       1       6       8       7
       1       1       6       8       8       6       1       8       6       1
       6       1       1       8       1       6       1       6       1       8
       1       6       1       7       1       6       8       6       1       1
       1       8       6       1       8       6       1       6       1       1
       8       1       6       1       6       1       8       1       6       1
       7       1       6       8       6       1       1       1       8       6
       1       8       6       1       6       1       1       8       6       1
       8       1       6       1       6       1       8       1       8       6
       1       6       1       8       1       6       1       6       1       6
       1       6       1       1       8       8       8       1       8       6
       1       6       1       6       1       6       1       6       1       6
       1       1       8       1       8       8       1       8       1       8
       6       1       6       1       6       1       6       1       6       1
       6       1       1       8       1       8       8       1       8       1
       8       1       6       1       6       1       6       1       6       1
       6       1       6       1       1       8       1       8       8       1
       8       1       8       6       1       6       1       6       1       6
       1       6       1       6       1       1       8       1       8       8
       1       8       1       8       1       6       1       6       1       6
       1       6       1       6       1       6       1       1       8       1
       8       8       1       8       1       8       6       1       6       1
       6       1       6       1       6       1       6       1       1       8
       1       8       8       1       8       1       8       6       1       6
       1       6       1       6       1       6       1       6       1       1
       8       1       8       8       1       8       1       8       1
%FLAG MASS                                                                      
%FORMAT(5E16.8)                                                                 
  1.40100000E+01  1.00800000E+00  1.00800000E+00  1.00800000E+00  1.20100000E+01
  1.00800000E+00  1.20100000E+01  1.00800000E+00  1.00800000E+00  1.20100000E+01
  1.00800000E+00  1.00800000E+00  1.20100000E+01  1.00800000E+00  1.00800000E+00
  1.20100000E+01  1.00800000E+00  1.00800000E+00  1.40100000E+01  1.00800000E+00
  1.00800000E+00  1.00800000E+00  1.20100000E+01  1.60000000E+01  1.40100000E+01
  1.00800000E+00  1.20100000E+01  1.00800000E+00  1.20100000E+01  1.00800000E+00
  1.00800000E+00  1.20100000E+01  1.60000000E+01  1.40100000E+01  1.00800000E+00
  1.20100000E+01  1.60000000E+01  1.40100000E+01  1.00800000E+00  1.20100000E+01
  1.00800000E+00  1.20100000E+01  1.00800000E+00  1.00800000E+00  1.20100000E+01
  1.00800000E+00  1.00800000E+00  1.20100000E+01  1.60000000E+01  1.40100000E+01
  1.00800000E+00  1.00800000E+00  1.20100000E+01  1.60000000E+01  1.60000000E+01
  1.20100000E+01  1.00800000E+00  1.60000000E+01  1.20100000E+01  1.00800000E+00
  1.20100000E+01  1.00800000E+00  1.00800000E+00  1.60000000E+01  1.00800000E+00
  1.20100000E+01  1.00800000E+00  1.20100000E+01  1.00800000E+00  1.60000000E+01
  1.00800000E+00  1.20100000E+01  1.00800000E+00  1.40100000E+01  1.00800000E+00
  1.20100000E+01  1.60000000E+01  1.20100000E+01  1.00800000E+00  1.00800000E+00
  1.00800000E+00  1.60000000E+01  1.20100000E+01  1.00800000E+00  1.60000000E+01
  1.20100000E+01  1.00800000E+00  1.20100000E+01  1.00800000E+00  1.00800000E+00
  1.60000000E+01  1.00800000E+00  1.20100000E+01  1.00800000E+00  1.20100000E+01
  1.00800000E+00  1.60000000E+01  1.00800000E+00  1.20100000E+01  1.00800000E+00
  1.40100000E+01  1.00800000E+00  1.20100000E+01  1.60000000E+01  1.20100000E+01
  1.00800000E+00  1.00800000E+00  1.00800000E+00  1.60000000E+01  1.20100000E+01
  1.00800000E+00  1.60000000E+01  1.20100000E+01  1.00800000E+00  1.20100000E+01
  1.00800000E+00  1.00800000E+00  1.60000000E+01  1.20100000E+01  1.00800000E+00
  1.60000000E+01  1.00800000E+00  1.20100000E+01  1.00800000E+00  1.20100000E+01
  1.00800000E+00  1.60000000E+01  1.00800000E+00  1.60000000E+01  1.20100000E+01
  1.00800000E+00  1.20100000E+01  1.00800000E+00  1.60000000E+01  1.00800000E+00
  1.20100000E+01  1.00800000E+00  1.20100000E+01  1.00800000E+00  1.20100000E+01
  1.00800000E+00  1.20100000E+01  1.00800000E+00  1.00800000E+00  1.60000000E+01
  1.60000000E+01  1.60000000E+01  1.00800000E+00  1.60000000E+01  1.20100000E+01
  1.00800000E+00  1.20100000E+01  1.00800000E+00  1.20100000E+01  1.00800000E+00
  1.20100000E+01  1.00800000E+00  1.20100000E+01  1.00800000E+00  1.20100000E+01
  1.00800000E+00  1.00800000E+00  1.60000000E+01  1.00800000E+00  1.60000000E+01
  1.60000000E+01  1.00800000E+00  1.60000000E+01  1.00800000E+00  1.60000000E+01
  1.20100000E+01  1.00800000E+00  1.20100000E+01  1.00800000E+00  1.20100000E+01
  1.00800000E+00  1.20100000E+01  1.00800000E+00  1.20100000E+01  1.00800000E+00
  1.20100000E+01  1.00800000E+00  1.00800000E+00  1.60000000E+01  1.00800000E+00
  1.60000000E+01  1.60000000E+01  1.00800000E+00  1.60000000E+01  1.00800000E+00
  1.60000000E+01  1.00800000E+00  1.20100000E+01  1.00800000E+00  1.20100000E+01
  1.00800000E+00  1.20100000E+01  1.00800000E+00  1.20100000E+01  1.00800000E+00
  1.20100000E+01  1.00800000E+00  1.20100000E+01  1.00800000E+00  1.00800000E+00
  1.60000000E+01  1.00800000E+00  1.60000000E+01  1.60000000E+01  1.00800000E+00
  1.60000000E+01  1.00800000E+00  1.60000000E+01  1.20100000E+01  1.00800000E+00
  1.20100000E+01  1.00800000E+00  1.20100000E+01  1.00800000E+00  1.20100000E+01
  1.00800000E+00  1.20100000E+01  1.00800000E+00  1.20100000E+01  1.00800000E+00
  1.00800000E+00  1.60000000E+01  1.00800000E+00  1.60000000E+01  1.60000000E+01
  1.00800000E+00  1.60000000E+01  1.00800000E+00  1.60000000E+01  1.00800000E+00
  1.20100000E+01  1.00800000E+00  1.20100000E+01  1.00800000E+00  1.20100000E+01
  1.00800000E+00  1.20100000E+01  1.00800000E+00  1.20100000E+01  1.00800000E+00
  1.20100000E+01  1.00800000E+00  1.00800000E+00  1.60000000E+01  1.00800000E+00
  1.60000000E+01  1.60000000E+01  1.00800000E+00  1.60000000E+01  1.00800000E+00
  1.60000000E+01  1.20100000E+01  1.00800000E+00  1.20100000E+01  1.00800000E+00
  1.20100000E+01  1.00800000E+00  1.20100000E+01  1.00800000E+00  1.20100000E+01
  1.00800000E+00  1.20100000E+01  1.00800000E+00  1.00800000E+00  1.60000000E+01
  1.00800000E+00  1.60000000E+01  1.60000000E+01  1.00800000E+00  1.60000000E+01
  1.00800000E+00  1.60000000E+01  1.20100000E+01  1.00800000E+00  1.20100000E+01
  1.00800000E+00  1.20100000E+01  1.00800000E+00  1.20100000E+01  1.00800000E+00
  1.20100000E+01  1.00800000E+00  1.20100000E+01  1.00800000E+00  1.00800000E+00
  1.60000000E+01  1.00800000E+00  1.60000000E+01  1.60000000E+01  1.00800000E+00
  1.60000000E+01  1.00800000E+00  1.60000000E+01  1.00800000E+00
%FLAG ATOM_TYPE_INDEX                                                           
%FORMAT(10I8)                                                                   
       1       2       2       2       3       4       3       5       5       3
       5       5       3       5       5       3       4       4       1       2
       2       2       6       7       1       2       3       8       3       5
       5       6       7       1       2       6       7       1       2       3
       8       3       5       5       3       5       5       6       7       1
       2       2       6       7       7       3       9      10       3       8
       3       8       8      11      12       3       8       3       8      11
      12       3       8       1       2       6       7       3       5       5
       5      10       3       9      10       3       8       3       8       8
      11      12       3       8       3       8      11      12       3       8
       1       2       6       7       3       5       5       5      10       3
       9      10       3       8       3       8       8      10       3       8
      11      12       3       8       3       8      11      12      10       3
       9       3       8      11      12       3       8       3       8       3
       8       3       8       8      10      10      11      12      10       3
       9       3       8       3       8       3       8       3       8       3
       8       8      11      12      10      11      12      11      12      10
       3       9       3       8       3       8       3       8       3       8
       3       8       8      11      12      10      11      12      11      12
      11      12       3       9       3       8       3       8       3       8
       3       8       3       8       8      11      12      10      11      12
      11      12      10       3       9       3       8       3       8       3
       8       3       8       3       8       8      11      12      10      11
      12      11      12      11      12       3       9       3       8       3
       8       3       8       3       8       3       8       8      11      12
      10      11      12      11      12      10       3       9       3       8
       3       8       3       8       3       8       3       8       8      11
      12      10      11      12      11      12      10       3       9       3
       8       3       8       3       8       3       8       3       8       8
      11      12      10      11      12      11      12      11      12
%FLAG NUMBER_EXCLUDED_ATOMS                                                     
%FORMAT(10I8)                                                                   
      12       6       5       4      13       7      12       6       5      10
       5       4       9       5       4       6       5       4       3       2
       1       1       7       3      10       4      12       7      10       5
       4       8       3       9       4       7       3      10       4      11
       7      11       6       5       8       4       3       4       3       2
       1       1       2       1       1      14       6      13      14       8
       8       4       3       2       1      13       6      10       6       5
       1       7       3       7       3       5       4       3       2       1
       1       8      14       6      13      14       8       8       4       3
       2       1      13       6      10       6       5       1       7       3
       7       3       5       4       3       2       1       1       8      13
       6      13      14       8      11       4       3       9      10       6
       5       1      10       5       5       3       2       1       8      13
       6      12       7       6       1      14       6      12       7      10
       6       9       4       3       9       1       2       1       8      13
       6      15       7      13       7      13       7      10       6       6
       4       3       2       1       2       2       1       2       1       8
      13       6      12       7      13       7      13       7      10       6
       6       4       3       2       1       2       2       1       2       1
       1       1      13       6      15       7      13       7      13       7
      10       6       6       4       3       2       1       2       2       1
       2       1       8      13       6      12       7      13       7      13
       7      10       6       6       4       3       2       1       2       2
       1       2       1       1       1      13       6      15       7      13
       7      13       7      10       6       6       4       3       2       1
       2       2       1       2       1       8      13       6      15       7
      13       7      13       7      10       6       6       4       3       2
       1       2       2       1       2       1       8      13       6      12
       7      13       7      13       7      10       6       6       4       3
       2       1       2       2       1       2       1       1       1
%FLAG NONBONDED_PARM_INDEX                                                      
%FORMAT(10I8)                                                                   
       1       2       4       7      11      16      22      29      37      46
      56      67       2       3       5       8      12      17      23      30
      38      47      57      68       4       5       6       9      13      18
      24      31      39      48      58      69       7       8       9      10
      14      19      25      32      40      49      59      70      11      12
      13      14      15      20      26      33      41      50      60      71
      16      17      18      19      20      21      27      34      42      51
      61      72      22      23      24      25      26      27      28      35
      43      52      62      73      29      30      31      32      33      34
      35      36      44      53      63      74      37      38      39      40
      41      42      43      44      45      54      64      75      46      47
      48      49      50      51      52      53      54      55      65      76
      56      57      58      59      60      61      62      63      64      65
      66      77      67      68      69      70      71      72      73      74
      75      76      77      78
%FLAG RESIDUE_LABEL                                                             
%FORMAT(20a4)                                                                   
LYS NLN GLN 4YB 4YB VMB VMA 2MA 0MA 2MA 0MA 2MA 2MA 0MA 
%FLAG RESIDUE_POINTER                                                           
%FORMAT(10I8)                                                                   
       1      25      38      56      83     110     130     150     171     193
     214     236     257     278
%FLAG BOND_FORCE_CONSTANT                                                       
%FORMAT(5E16.8)                                                                 
  5.70000000E+02  4.90000000E+02  4.34000000E+02  3.40000000E+02  3.67000000E+02
  3.40000000E+02  3.10000000E+02  3.40000000E+02  3.10000000E+02  3.17000000E+02
  3.67000000E+02  4.34000000E+02  3.37000000E+02  3.40000000E+02  3.17000000E+02
  3.40000000E+02  3.10000000E+02  3.37000000E+02  6.56000000E+02  3.10000000E+02
  2.85000000E+02  3.40000000E+02  2.20000000E+02  4.34000000E+02  4.90000000E+02
  3.40000000E+02  3.37000000E+02  5.53000000E+02  3.20000000E+02  3.10000000E+02
  3.40000000E+02
%FLAG BOND_EQUIL_VALUE                                                          
%FORMAT(5E16.8)                                                                 
  1.22900000E+00  1.33500000E+00  1.01000000E+00  1.09000000E+00  1.47100000E+00
  1.09000000E+00  1.52600000E+00  1.09000000E+00  1.52600000E+00  1.52200000E+00
  1.47100000E+00  1.01000000E+00  1.45000000E+00  1.09000000E+00  1.52200000E+00
  1.09000000E+00  1.52600000E+00  1.44900000E+00  1.25000000E+00  1.52600000E+00
  1.46000000E+00  1.09000000E+00  1.53000000E+00  1.01000000E+00  1.33500000E+00
  1.09000000E+00  1.45000000E+00  9.60000000E-01  1.43000000E+00  1.52000000E+00
  1.09000000E+00
%FLAG ANGLE_FORCE_CONSTANT                                                      
%FORMAT(5E16.8)                                                                 
  8.00000000E+01  5.00000000E+01  5.00000000E+01  3.50000000E+01  5.00000000E+01
  3.50000000E+01  5.00000000E+01  5.00000000E+01  3.50000000E+01  5.00000000E+01
  8.00000000E+01  4.00000000E+01  6.30000000E+01  5.00000000E+01  5.00000000E+01
  5.00000000E+01  4.00000000E+01  8.00000000E+01  7.00000000E+01  5.00000000E+01
  5.00000000E+01  8.00000000E+01  8.00000000E+01  3.00000000E+01  5.00000000E+01
  1.06900000E+02  8.00000000E+01  5.00000000E+01  5.00000000E+01  3.50000000E+01
  6.30000000E+01  8.00000000E+01  7.00000000E+01  5.00000000E+01  5.00000000E+01
  5.00000000E+01  6.30000000E+01  5.00000000E+01  5.00000000E+01  8.00000000E+01
  6.30000000E+01  8.00000000E+01  3.50000000E+01  5.00000000E+01  6.30000000E+01
  4.00000000E+01  7.00000000E+01  6.00000000E+01  1.00000000E+02  7.00000000E+01
  4.00000000E+01  8.00000000E+01  5.00000000E+01  5.00000000E+01  8.00000000E+01
  7.00000000E+01  5.00000000E+01  3.00000000E+01  5.00000000E+01  7.00000000E+01
  6.00000000E+01  4.50000000E+01  5.50000000E+01  8.00000000E+01  6.00000000E+01
  4.50000000E+01  5.00000000E+01  4.50000000E+01  4.50000000E+01
%FLAG ANGLE_EQUIL_VALUE                                                         
%FORMAT(5E16.8)                                                                 
  2.14501057E+00  2.09439600E+00  2.12755727E+00  1.91113635E+00  1.91113635E+00
  1.91113635E+00  1.91113635E+00  1.91113635E+00  1.91113635E+00  1.91113635E+00
  1.94080696E+00  1.91113635E+00  1.93906163E+00  1.91113635E+00  1.91113635E+00
  1.91113635E+00  1.91113635E+00  2.10137732E+00  2.03505478E+00  1.91113635E+00
  1.91113635E+00  1.94080696E+00  1.94080696E+00  2.05948940E+00  1.91113635E+00
  1.88321107E+00  1.91462701E+00  2.09439600E+00  1.91113635E+00  1.91113635E+00
  1.93906163E+00  2.10137732E+00  2.03505478E+00  1.91113635E+00  1.91113635E+00
  1.91113635E+00  1.93906163E+00  2.06018753E+00  1.91113635E+00  1.91462701E+00
  1.92160833E+00  2.19911580E+00  2.09439600E+00  1.91113635E+00  1.93906163E+00
  1.91113635E+00  2.04203610E+00  1.91986300E+00  1.95476960E+00  1.89368305E+00
  1.91113635E+00  2.12406661E+00  1.91113635E+00  2.09439600E+00  2.14501057E+00
  2.01760148E+00  1.91113635E+00  2.05948940E+00  2.09439600E+00  1.87622975E+00
  1.91986300E+00  1.93731630E+00  1.91113635E+00  1.91462701E+00  1.91986300E+00
  1.98094955E+00  1.94778828E+00  1.91113635E+00  1.93731630E+00
%FLAG DIHEDRAL_FORCE_CONSTANT                                                   
%FORMAT(5E16.8)                                                                 
  2.00000000E+00  2.50000000E+00  0.00000000E+00  1.80000000E+00  8.00000000E-01
  0.00000000E+00  0.00000000E+00  2.70000000E-01  4.20000000E-01  1.55555556E-01
  1.50000000E-01  1.60000000E-01  2.00000000E-01  2.00000000E-01  4.00000000E-01
  2.00000000E-01  2.50000000E-01  1.80000000E-01  1.00000000E+00  1.52000000E+00
 -4.30000000E-01  1.00000000E-01 -9.00000000E-01  4.00000000E-01  0.00000000E+00
  1.04600000E+00  3.03000000E-01  3.30000000E-02  1.07000000E-01 -1.00000000E+00
  2.03000000E+00  0.00000000E+00  8.00000000E-01  8.00000000E-02  8.28000000E-01
  4.85000000E-01  3.01000000E-01  8.00000000E-03  6.88000000E-01  2.97000000E-01
  5.90000000E-02  4.50000000E-01  1.58000000E+00  5.50000000E-01  4.21000000E-01
  3.93000000E-01  1.44000000E-01  1.45000000E-01  6.09000000E-01  8.45000000E-01
  8.50000000E-02  4.20000000E-02  1.96000000E-01  8.30000000E-02  4.12000000E-01
  1.38000000E-01  1.00000000E-01  1.84000000E-01  7.80000000E-02  1.08000000E+00
  1.38000000E+00  9.60000000E-01 -2.70000000E-01  5.00000000E-02 -1.30000000E+00
  2.00000000E+00  2.50000000E+00 -2.80000000E+00 -2.70000000E+00  1.80000000E-01
 -1.10000000E+00  2.50000000E-01 -1.50000000E+00  1.70000000E-01  1.60000000E-01
  1.50000000E-01  2.70000000E-01  6.00000000E-01  4.50000000E-01  4.00000000E-01
 -1.00000000E-01  9.50000000E-01  5.50000000E-01  1.05000000E+01  1.00000000E+00
  1.10000000E+00  1.50000000E+00
%FLAG DIHEDRAL_PERIODICITY                                                      
%FORMAT(5E16.8)                                                                 
  1.00000000E+00  2.00000000E+00  2.00000000E+00  2.00000000E+00  3.00000000E+00
  4.00000000E+00  1.00000000E+00  2.00000000E+00  3.00000000E+00  3.00000000E+00
  3.00000000E+00  3.00000000E+00  1.00000000E+00  2.00000000E+00  3.00000000E+00
  1.00000000E+00  2.00000000E+00  3.00000000E+00  1.00000000E+00  1.00000000E+00
  2.00000000E+00  3.00000000E+00  1.00000000E+00  1.00000000E+00  1.00000000E+00
  1.00000000E+00  2.00000000E+00  3.00000000E+00  4.00000000E+00  1.00000000E+00
  2.00000000E+00  3.00000000E+00  1.00000000E+00  3.00000000E+00  1.00000000E+00
  2.00000000E+00  3.00000000E+00  4.00000000E+00  1.00000000E+00  2.00000000E+00
  4.00000000E+00  1.00000000E+00  2.00000000E+00  3.00000000E+00  1.00000000E+00
  2.00000000E+00  3.00000000E+00  4.00000000E+00  1.00000000E+00  2.00000000E+00
  3.00000000E+00  4.00000000E+00  1.00000000E+00  2.00000000E+00  3.00000000E+00
  4.00000000E+00  1.00000000E+00  2.00000000E+00  4.00000000E+00  1.00000000E+00
  2.00000000E+00  3.00000000E+00  1.00000000E+00  3.00000000E+00  1.00000000E+00
  1.00000000E+00  2.00000000E+00  2.00000000E+00  2.00000000E+00  3.00000000E+00
  1.00000000E+00  2.00000000E+00  1.00000000E+00  3.00000000E+00  3.00000000E+00
  3.00000000E+00  3.00000000E+00  2.00000000E+00  1.00000000E+00  2.00000000E+00
  1.00000000E+00  2.00000000E+00  3.00000000E+00  2.00000000E+00  2.00000000E+00
  2.00000000E+00  2.00000000E+00
%FLAG DIHEDRAL_PHASE                                                            
%FORMAT(5E16.8)                                                                 
  0.00000000E+00  3.14159400E+00  0.00000000E+00  0.00000000E+00  0.00000000E+00
  0.00000000E+00  0.00000000E+00  0.00000000E+00  0.00000000E+00  0.00000000E+00
  0.00000000E+00  0.00000000E+00  0.00000000E+00  0.00000000E+00  0.00000000E+00
  3.14159400E+00  3.14159400E+00  0.00000000E+00  0.00000000E+00  0.00000000E+00
  0.00000000E+00  0.00000000E+00  0.00000000E+00  0.00000000E+00  0.00000000E+00
  0.00000000E+00  3.14159400E+00  0.00000000E+00  0.00000000E+00  0.00000000E+00
  0.00000000E+00  0.00000000E+00  0.00000000E+00  3.14159400E+00  3.14159400E+00
  3.14159400E+00  3.14159400E+00  0.00000000E+00  3.14159400E+00  3.14159400E+00
  0.00000000E+00  3.14159400E+00  3.14159400E+00  3.14159400E+00  3.14159400E+00
  3.14159400E+00  0.00000000E+00  0.00000000E+00  3.14159400E+00  3.14159400E+00
  3.14159400E+00  0.00000000E+00  3.14159400E+00  0.00000000E+00  3.14159400E+00
  0.00000000E+00  3.14159400E+00  3.14159400E+00  0.00000000E+00  0.00000000E+00
  0.00000000E+00  0.00000000E+00  0.00000000E+00  0.00000000E+00  0.00000000E+00
  0.00000000E+00  3.14159400E+00  0.00000000E+00  0.00000000E+00  0.00000000E+00
  0.00000000E+00  0.00000000E+00  0.00000000E+00  0.00000000E+00  0.00000000E+00
  0.00000000E+00  0.00000000E+00  0.00000000E+00  0.00000000E+00  0.00000000E+00
  0.00000000E+00  0.00000000E+00  0.00000000E+00  3.14159400E+00  3.14159400E+00
  3.14159400E+00  3.14159400E+00
%FLAG SCEE_SCALE_FACTOR                                                         
%FORMAT(5E16.8)                                                                 
  1.20000000E+00  1.20000000E+00  1.20000000E+00  1.20000000E+00  1.20000000E+00
  1.20000000E+00  1.20000000E+00  1.20000000E+00  1.20000000E+00  1.20000000E+00
  1.20000000E+00  1.20000000E+00  1.20000000E+00  1.20000000E+00  1.20000000E+00
  1.20000000E+00  1.20000000E+00  1.20000000E+00  1.00000000E+00  1.00000000E+00
  1.00000000E+00  1.00000000E+00  1.00000000E+00  1.00000000E+00  1.00000000E+00
  1.20000000E+00  1.20000000E+00  1.20000000E+00  1.20000000E+00  1.00000000E+00
  1.00000000E+00  1.00000000E+00  1.20000000E+00  1.20000000E+00  1.20000000E+00
  1.20000000E+00  1.20000000E+00  1.20000000E+00  1.20000000E+00  1.20000000E+00
  1.20000000E+00  1.20000000E+00  1.20000000E+00  1.20000000E+00  1.20000000E+00
  1.20000000E+00  1.20000000E+00  1.20000000E+00  1.20000000E+00  1.20000000E+00
  1.20000000E+00  1.20000000E+00  1.20000000E+00  1.20000000E+00  1.20000000E+00
  1.20000000E+00  1.20000000E+00  1.20000000E+00  1.20000000E+00  1.00000000E+00
  1.00000000E+00  1.00000000E+00  1.00000000E+00  1.00000000E+00  1.00000000E+00
  1.20000000E+00  1.20000000E+00  1.00000000E+00  1.00000000E+00  1.00000000E+00
  1.00000000E+00  1.00000000E+00  1.00000000E+00  1.00000000E+00  1.00000000E+00
  1.00000000E+00  1.00000000E+00  1.00000000E+00  1.00000000E+00  1.00000000E+00
  1.00000000E+00  1.00000000E+00  1.00000000E+00  0.00000000E+00  0.00000000E+00
  0.00000000E+00  0.00000000E+00
%FLAG SCNB_SCALE_FACTOR                                                         
%FORMAT(5E16.8)                                                                 
  2.00000000E+00  2.00000000E+00  2.00000000E+00  2.00000000E+00  2.00000000E+00
  2.00000000E+00  2.00000000E+00  2.00000000E+00  2.00000000E+00  2.00000000E+00
  2.00000000E+00  2.00000000E+00  2.00000000E+00  2.00000000E+00  2.00000000E+00
  2.00000000E+00  2.00000000E+00  2.00000000E+00  1.00000000E+00  1.00000000E+00
  1.00000000E+00  1.00000000E+00  1.00000000E+00  1.00000000E+00  1.00000000E+00
  2.00000000E+00  2.00000000E+00  2.00000000E+00  2.00000000E+00  1.00000000E+00
  1.00000000E+00  1.00000000E+00  2.00000000E+00  2.00000000E+00  2.00000000E+00
  2.00000000E+00  2.00000000E+00  2.00000000E+00  2.00000000E+00  2.00000000E+00
  2.00000000E+00  2.00000000E+00  2.00000000E+00  2.00000000E+00  2.00000000E+00
  2.00000000E+00  2.00000000E+00  2.00000000E+00  2.00000000E+00  2.00000000E+00
  2.00000000E+00  2.00000000E+00  2.00000000E+00  2.00000000E+00  2.00000000E+00
  2.00000000E+00  2.00000000E+00  2.00000000E+00  2.00000000E+00  1.00000000E+00
  1.00000000E+00  1.00000000E+00  1.00000000E+00  1.00000000E+00  1.00000000E+00
  2.00000000E+00  2.00000000E+00  1.00000000E+00  1.00000000E+00  1.00000000E+00
  1.00000000E+00  1.00000000E+00  1.00000000E+00  1.00000000E+00  1.00000000E+00
  1.00000000E+00  1.00000000E+00  1.00000000E+00  1.00000000E+00  1.00000000E+00
  1.00000000E+00  1.00000000E+00  1.00000000E+00  0.00000000E+00  0.00000000E+00
  0.00000000E+00  0.00000000E+00
%FLAG SOLTY                                                                     
%FORMAT(5E16.8)                                                                 
  0.00000000E+00  0.00000000E+00  0.00000000E+00  0.00000000E+00  0.00000000E+00
  0.00000000E+00  0.00000000E+00  0.00000000E+00  0.00000000E+00  0.00000000E+00
  0.00000000E+00  0.00000000E+00  0.00000000E+00  0.00000000E+00  0.00000000E+00
  0.00000000E+00  0.00000000E+00  0.00000000E+00  0.00000000E+00
%FLAG LENNARD_JONES_ACOEF                                                       
%FORMAT(5E16.8)                                                                 
  9.44293233E+05  2.12601181E+03  1.39982777E-01  9.95480466E+05  2.56678134E+03
  1.04308023E+06  2.01791425E+04  9.14716912E+00  2.27401052E+04  2.01823541E+02
  8.96776989E+04  1.07193646E+02  9.71708117E+04  1.41077189E+03  7.51607703E+03
  8.82619071E+05  2.27577561E+03  9.24822270E+05  2.01619733E+04  8.61541883E+04
  8.19971662E+05  6.06829342E+05  1.02595236E+03  6.47841731E+05  1.12780457E+04
  5.44261042E+04  5.74393458E+05  3.79876399E+05  6.20665997E+04  5.94667300E+01
  6.78771368E+04  8.79040886E+02  4.98586848E+03  6.01816484E+04  3.69471530E+04
  3.25969625E+03  4.24594555E+04  3.20009193E+01  4.68930885E+04  5.37190941E+02
  3.25969625E+03  4.15766412E+04  2.47595516E+04  2.09814978E+03  1.32801250E+03
  5.89818288E+05  1.03954408E+03  6.28541240E+05  1.11851919E+04  5.33379252E+04
  5.57281136E+05  3.70622491E+05  3.63097246E+04  2.44050579E+04  3.61397723E+05
  7.44975864E+05  1.40467023E+03  7.91544157E+05  1.45985502E+04  6.82786631E+04
  7.01803794E+05  4.71003287E+05  4.66922514E+04  3.15360051E+04  4.58874091E+05
  5.81803229E+05  3.37529073E+02  1.49138681E-03  4.41079188E+02  5.05627494E-01
  1.15316498E+01  3.91072368E+02  1.37147154E+02  5.53902818E+00  2.53654211E+00
  1.42536451E+02  2.00637392E+02  5.03316480E-07
%FLAG LENNARD_JONES_BCOEF                                                       
%FORMAT(5E16.8)                                                                 
  8.01323529E+02  2.09604198E+01  9.37598976E-02  7.36907417E+02  2.06278363E+01
  6.75612247E+02  6.45756063E+01  7.57919667E-01  6.13981767E+01  3.56012899E+00
  1.36131731E+02  2.59456373E+00  1.26919150E+02  9.41257003E+00  2.17257828E+01
  6.53361429E+02  1.82891803E+01  5.99015525E+02  5.44372326E+01  1.12529845E+02
  5.31102864E+02  6.77220874E+02  1.53505284E+01  6.26720080E+02  5.08951803E+01
  1.11805549E+02  5.55666448E+02  5.64885984E+02  1.13252061E+02  1.93248820E+00
  1.06076943E+02  7.42992380E+00  1.76949863E+01  9.40505980E+01  9.21192136E+01
  1.43076527E+01  9.36708259E+01  1.41762397E+00  8.81685417E+01  5.80823477E+00
  1.43076527E+01  7.81725398E+01  7.54103785E+01  1.14788417E+01  9.13231543E+00
  6.33305958E+02  1.46567808E+01  5.85549272E+02  4.80771660E+01  1.04986921E+02
  5.19163331E+02  5.29252520E+02  8.66220817E+01  7.10161395E+01  4.95732238E+02
  7.50714425E+02  1.79702257E+01  6.93079947E+02  5.79323581E+01  1.25287818E+02
  6.14502845E+02  6.29300710E+02  1.03606917E+02  8.51470647E+01  5.89183300E+02
  6.99746810E+02  9.81924582E+00  1.13783784E-02  1.00536306E+01  2.09507977E-01
  1.00053191E+00  8.91381236E+00  6.59870227E+00  6.93429015E-01  4.69252138E-01
  6.38095248E+00  7.98505074E+00  2.45760000E-04
%FLAG BONDS_INC_HYDROGEN                                                        
%FORMAT(10I8)                                                                   
      54      57       3      54      60       3      54      63       3      45
      48       4      45      51       4      36      39       6      36      42
       6      27      30       6      27      33       6      18      21       6
      18      24       6      12      15       8       0       3       3       0
       6       3       0       9       3      99     102      12      84      87
      14      84      90      14      78      81      16      72      75      12
     147     150      12     147     153      12     132     135      14     132
     138      14     123     126      14     123     129      14     117     120
      16     111     114      12     231     234      22     231     237      22
     231     240      22     219     222      24     213     216      26     207
     210      28     201     204      26     195     198      26     189     192
      28     180     183      26     180     186      26     174     177      26
     165     168      31     312     315      22     312     318      22     312
     321      22     300     303      24     294     297      26     288     291
      28     282     285      26     276     279      26     270     273      28
     261     264      26     261     267      26     255     258      26     246
     249      31     378     381      28     372     375      26     366     369
      26     360     363      28     354     357      26     342     345      26
     342     348      26     336     339      26     327     330      31     438
     441      28     423     426      26     423     429      26     417     420
      26     411     414      26     405     408      26     399     402      28
     393     396      26     387     390      31     501     504      28     495
     498      28     486     489      28     477     480      26     477     483
      26     471     474      26     465     468      26     459     462      26
     453     456      26     447     450      31     570     573      28     564
     567      28     558     561      28     549     552      28     540     543
      26     540     546      26     534     537      26     528     531      26
     522     525      26     516     519      26     510     513      31     630
     633      28     624     627      28     615     618      28     606     609
      26     606     612      26     600     603      26     594     597      26
     588     591      26     582     585      26     576     579      31     699
     702      28     693     696      28     687     690      28     678     681
      28     669     672      26     669     675      26     663     666      26
     657     660      26     651     654      26     645     648      26     639
     642      31     759     762      28     753     756      28     744     747
      28     735     738      26     735     741      26     729     732      26
     723     726      26     717     720      26     711     714      26     705
     708      31     822     825      28     816     819      28     807     810
      28     798     801      26     798     804      26     792     795      26
     786     789      26     780     783      26     774     777      26     768
     771      31     891     894      28     885     888      28     879     882
      28     870     873      28     861     864      26     861     867      26
     855     858      26     849     852      26     843     846      26     837
     840      26     831     834      31
%FLAG BONDS_WITHOUT_HYDROGEN                                                    
%FORMAT(10I8)                                                                   
      66      69       1      66      72       2      45      54       5      36
      45       7      27      36       7      18      27       7      12      18
       9      12      66      10       0      12      11     105     108       1
     105     111       2      99     165      13      93      96       1      93
      99       2      84      93      15      78      84      17      78     105
      10      72      78      18     156     159      19     156     162      19
     141     144       1     141     147       2     132     141      15     123
     132      20     117     123      17     117     156      10     111     117
      18     243     246      21     225     228       1     225     231      23
     219     225      25     213     219      27     201     207      29     201
     213      30     195     201      30     195     243      21     180     189
      29     174     180      30     174     195      30     171     174      21
     165     171      21     165     213      30     324     327      21     306
     309       1     306     312      23     300     306      25     294     300
      27     282     288      29     282     294      30     276     282      30
     276     324      21     261     270      29     255     261      30     255
     276      30     252     255      21     246     252      21     246     294
      30     384     705      21     372     378      29     366     372      30
     366     384      21     354     360      29     354     366      30     351
     387      21     342     351      21     336     342      30     336     354
      30     333     336      21     327     333      21     327     372      30
     444     576      21     432     447      21     423     432      21     417
     423      30     417     435      21     411     417      30     411     438
      29     405     411      30     405     444      21     393     399      29
     393     405      30     387     393      30     387     435      21     507
     510      21     477     486      29     471     477      30     471     492
      21     465     471      30     465     495      29     459     465      30
     459     501      29     453     459      30     453     507      21     447
     453      30     447     492      21     540     549      29     534     540
      30     534     555      21     528     534      30     528     558      29
     522     528      30     522     564      29     516     522      30     516
     570      29     510     516      30     510     555      21     636     639
      21     606     615      29     600     606      30     600     621      21
     594     600      30     594     624      29     588     594      30     588
     630      29     582     588      30     582     636      21     576     582
      30     576     621      21     669     678      29     663     669      30
     663     684      21     657     663      30     657     687      29     651
     657      30     651     693      29     645     651      30     645     699
      29     639     645      30     639     684      21     765     768      21
     735     744      29     729     735      30     729     750      21     723
     729      30     723     753      29     717     723      30     717     759
      29     711     717      30     711     765      21     705     711      30
     705     750      21     828     831      21     798     807      29     792
     798      30     792     813      21     786     792      30     786     816
      29     780     786      30     780     822      29     774     780      30
     774     828      21     768     774      30     768     813      21     861
     870      29     855     861      30     855     876      21     849     855
      30     849     879      29     843     849      30     843     885      29
     837     843      30     837     891      29     831     837      30     831
     876      21
%FLAG ANGLES_INC_HYDROGEN                                                       
%FORMAT(10I8)                                                                   
      66      72      75       2      60      54      63       4      57      54
      60       4      57      54      63       4      51      45      54       5
      48      45      51       6      48      45      54       5      45      54
      57       7      45      54      60       7      45      54      63       7
      42      36      45       8      39      36      42       9      39      36
      45       8      36      45      48      10      36      45      51      10
      33      27      36       8      30      27      33       9      30      27
      36       8      27      36      39       8      27      36      42       8
      24      18      27       8      21      18      24       9      21      18
      27       8      18      27      30       8      18      27      33       8
      15      12      18      14      15      12      66      15      12      18
      21      16      12      18      24      16       9       0      12      20
       6       0       9       4       6       0      12      20       3       0
       6       4       3       0       9       4       3       0      12      20
       0      12      15      21     105     111     114       2     102      99
     165      24      99     165     168      25      93      99     102       2
      90      84      93      29      87      84      90      30      87      84
      93      29      81      78      84      34      81      78     105      35
      78      84      87      36      78      84      90      36      75      72
      78      38      72      78      81      39     150     147     153      43
     141     147     150       2     141     147     153       2     138     132
     141      29     135     132     138      30     135     132     141      29
     129     123     132      44     126     123     129      30     126     123
     132      44     123     132     135      44     123     132     138      44
     120     117     123      34     120     117     156      35     117     123
     126      36     117     123     129      36     114     111     117      38
     111     117     120      39     243     246     249      48     237     231
     240      51     234     231     237      51     234     231     240      51
     225     231     234      53     225     231     237      53     225     231
     240      53     222     219     225      54     216     213     219      57
     213     219     222      58     204     201     207      61     204     201
     213      62     201     207     210      63     201     213     216      62
     198     195     201      62     198     195     243      65     195     201
     204      62     186     180     189      61     183     180     186      68
     183     180     189      61     180     189     192      63     177     174
     180      62     177     174     195      62     174     180     183      62
     174     180     186      62     174     195     198      62     171     174
     177      65     168     165     171      48     168     165     213      69
     165     213     216      62     324     327     330      48     318     312
     321      51     315     312     318      51     315     312     321      51
     306     312     315      53     306     312     318      53     306     312
     321      53     303     300     306      54     297     294     300      57
     294     300     303      58     285     282     288      61     285     282
     294      62     282     288     291      63     282     294     297      62
     279     276     282      62     279     276     324      65     276     282
     285      62     267     261     270      61     264     261     267      68
     264     261     270      61     261     270     273      63     258     255
     261      62     258     255     276      62     255     261     264      62
     255     261     267      62     255     276     279      62     252     255
     258      65     249     246     252      48     249     246     294      69
     246     294     297      62     384     705     708      48     375     372
     378      61     372     378     381      63     369     366     372      62
     369     366     384      65     366     372     375      62     357     354
     360      61     357     354     366      62     354     360     363      63
     354     366     369      62     351     387     390      48     348     342
     351      65     345     342     348      68     345     342     351      65
     339     336     342      62     339     336     354      62     336     342
     345      62     336     342     348      62     336     354     357      62
     333     336     339      65     330     327     333      48     330     327
     372      69     327     372     375      62     444     576     579      48
     432     447     450      48     429     423     432      65     426     423
     429      68     426     423     432      65     420     417     423      62
     420     417     435      65     417     423     426      62     417     423
     429      62     414     411     417      62     414     411     438      61
     411     417     420      62     411     438     441      63     408     405
     411      62     408     405     444      65     405     411     414      62
     396     393     399      61     396     393     405      62     393     399
     402      63     393     405     408      62     390     387     393      69
     390     387     435      48     387     393     396      62     507     510
     513      48     483     477     486      61     480     477     483      68
     480     477     486      61     477     486     489      63     474     471
     477      62     474     471     492      65     471     477     480      62
     471     477     483      62     468     465     471      62     468     465
     495      61     465     471     474      62     465     495     498      63
     462     459     465      62     462     459     501      61     459     465
     468      62     459     501     504      63     456     453     459      62
     456     453     507      65     453     459     462      62     450     447
     453      69     450     447     492      48     447     453     456      62
     546     540     549      61     543     540     546      68     543     540
     549      61     540     549     552      63     537     534     540      62
     537     534     555      65     534     540     543      62     534     540
     546      62     531     528     534      62     531     528     558      61
     528     534     537      62     528     558     561      63     525     522
     528      62     525     522     564      61     522     528     531      62
     522     564     567      63     519     516     522      62     519     516
     570      61     516     522     525      62     516     570     573      63
     513     510     516      69     513     510     555      48     510     516
     519      62     636     639     642      48     612     606     615      61
     609     606     612      68     609     606     615      61     606     615
     618      63     603     600     606      62     603     600     621      65
     600     606     609      62     600     606     612      62     597     594
     600      62     597     594     624      61     594     600     603      62
     594     624     627      63     591     588     594      62     591     588
     630      61     588     594     597      62     588     630     633      63
     585     582     588      62     585     582     636      65     582     588
     591      62     579     576     582      69     579     576     621      48
     576     582     585      62     675     669     678      61     672     669
     675      68     672     669     678      61     669     678     681      63
     666     663     669      62     666     663     684      65     663     669
     672      62     663     669     675      62     660     657     663      62
     660     657     687      61     657     663     666      62     657     687
     690      63     654     651     657      62     654     651     693      61
     651     657     660      62     651     693     696      63     648     645
     651      62     648     645     699      61     645     651     654      62
     645     699     702      63     642     639     645      69     642     639
     684      48     639     645     648      62     765     768     771      48
     741     735     744      61     738     735     741      68     738     735
     744      61     735     744     747      63     732     729     735      62
     732     729     750      65     729     735     738      62     729     735
     741      62     726     723     729      62     726     723     753      61
     723     729     732      62     723     753     756      63     720     717
     723      62     720     717     759      61     717     723     726      62
     717     759     762      63     714     711     717      62     714     711
     765      65     711     717     720      62     708     705     711      69
     708     705     750      48     705     711     714      62     828     831
     834      48     804     798     807      61     801     798     804      68
     801     798     807      61     798     807     810      63     795     792
     798      62     795     792     813      65     792     798     801      62
     792     798     804      62     789     786     792      62     789     786
     816      61     786     792     795      62     786     816     819      63
     783     780     786      62     783     780     822      61     780     786
     789      62     780     822     825      63     777     774     780      62
     777     774     828      65     774     780     783      62     771     768
     774      69     771     768     813      48     768     774     777      62
     867     861     870      61     864     861     867      68     864     861
     870      61     861     870     873      63     858     855     861      62
     858     855     876      65     855     861     864      62     855     861
     867      62     852     849     855      62     852     849     879      61
     849     855     858      62     849     879     882      63     846     843
     849      62     846     843     885      61     843     849     852      62
     843     885     888      63     840     837     843      62     840     837
     891      61     837     843     846      62     837     891     894      63
     834     831     837      69     834     831     876      48     831     837
     840      62
%FLAG ANGLES_WITHOUT_HYDROGEN                                                   
%FORMAT(10I8)                                                                   
      69      66      72       1      66      72      78       3      36      45
      54      11      27      36      45      12      18      12      66      13
      18      27      36      12      12      18      27      17      12      66
      69      18      12      66      72      19       0      12      18      22
       0      12      66      23     108     105     111       1     105     111
     117       3      99     165     171      26      99     165     213      27
      96      93      99       1      93      99     165      28      84      78
     105      31      84      93      96      32      84      93      99      33
      78      84      93      37      78     105     108      18      78     105
     111      19      72      78      84      40      72      78     105      41
     159     156     162      42     144     141     147       1     132     141
     144      32     132     141     147      33     123     117     156      31
     123     132     141      45     117     123     132      46     117     156
     159      47     117     156     162      47     111     117     123      40
     111     117     156      41     243     246     252      49     243     246
     294      50     228     225     231      52     219     225     228      55
     219     225     231      56     213     219     225      59     207     201
     213      60     201     195     243      50     201     213     219      64
     195     201     207      60     195     201     213      66     195     243
     246      67     180     174     195      66     174     180     189      60
     174     195     201      66     174     195     243      50     171     165
     213      50     171     174     180      50     171     174     195      50
     165     171     174      67     165     213     201      66     165     213
     219      64     324     327     333      49     324     327     372      50
     309     306     312      52     300     306     309      55     300     306
     312      56     294     300     306      59     288     282     294      60
     282     276     324      50     282     294     300      64     276     282
     288      60     276     282     294      66     276     324     327      67
     261     255     276      66     255     261     270      60     255     276
     282      66     255     276     324      50     252     246     294      50
     252     255     261      50     252     255     276      50     246     252
     255      67     246     294     282      66     246     294     300      64
     384     705     711      50     384     705     750      49     372     366
     384      50     366     372     378      60     366     384     705      67
     360     354     366      60     354     366     372      66     354     366
     384      50     351     387     393      50     351     387     435      49
     342     336     354      66     342     351     387      67     336     342
     351      50     336     354     360      60     336     354     366      66
     333     327     372      50     333     336     342      50     333     336
     354      50     327     333     336      67     327     372     366      66
     327     372     378      60     444     576     582      50     444     576
     621      49     432     447     453      50     432     447     492      49
     423     417     435      50     423     432     447      67     417     411
     438      60     417     423     432      50     411     405     444      50
     411     417     423      66     411     417     435      50     405     411
     417      66     405     411     438      60     405     444     576      67
     399     393     405      60     393     387     435      50     393     405
     411      66     393     405     444      50     387     393     399      60
     387     393     405      66     387     435     417      67     507     510
     516      50     507     510     555      49     477     471     492      50
     471     465     495      60     471     477     486      60     465     459
     501      60     465     471     477      66     465     471     492      50
     459     453     507      50     459     465     471      66     459     465
     495      60     453     447     492      50     453     459     465      66
     453     459     501      60     453     507     510      67     447     453
     459      66     447     453     507      50     447     492     471      67
     540     534     555      50     534     528     558      60     534     540
     549      60     528     522     564      60     528     534     540      66
     528     534     555      50     522     516     570      60     522     528
     534      66     522     528     558      60     516     510     555      50
     516     522     528      66     516     522     564      60     510     516
     522      66     510     516     570      60     510     555     534      67
     636     639     645      50     636     639     684      49     606     600
     621      50     600     594     624      60     600     606     615      60
     594     588     630      60     594     600     606      66     594     600
     621      50     588     582     636      50     588     594     600      66
     588     594     624      60     582     576     621      50     582     588
     594      66     582     588     630      60     582     636     639      67
     576     582     588      66     576     582     636      50     576     621
     600      67     669     663     684      50     663     657     687      60
     663     669     678      60     657     651     693      60     657     663
     669      66     657     663     684      50     651     645     699      60
     651     657     663      66     651     657     687      60     645     639
     684      50     645     651     657      66     645     651     693      60
     639     645     651      66     639     645     699      60     639     684
     663      67     765     768     774      50     765     768     813      49
     735     729     750      50     729     723     753      60     729     735
     744      60     723     717     759      60     723     729     735      66
     723     729     750      50     717     711     765      50     717     723
     729      66     717     723     753      60     711     705     750      50
     711     717     723      66     711     717     759      60     711     765
     768      67     705     711     717      66     705     711     765      50
     705     750     729      67     828     831     837      50     828     831
     876      49     798     792     813      50     792     786     816      60
     792     798     807      60     786     780     822      60     786     792
     798      66     786     792     813      50     780     774     828      50
     780     786     792      66     780     786     816      60     774     768
     813      50     774     780     786      66     774     780     822      60
     774     828     831      67     768     774     780      66     768     774
     828      50     768     813     792      67     861     855     876      50
     855     849     879      60     855     861     870      60     849     843
     885      60     849     855     861      66     849     855     876      50
     843     837     891      60     843     849     855      66     843     849
     879      60     837     831     876      50     837     843     849      66
     837     843     885      60     831     837     843      66     831     837
     891      60     831     876     855      67
%FLAG DIHEDRALS_INC_HYDROGEN                                                    
%FORMAT(10I8)                                                                   
      69      66      72      75       1      69      66     -72      75       2
      66      72      78      81       3      51      45      54      57      10
      51      45      54      60      10      51      45      54      63      10
      48      45      54      57      10      48      45      54      60      10
      48      45      54      63      10      42      36      45      48      10
      42      36      45      51      10      42      36      45      54      10
      39      36      45      48      10      39      36      45      51      10
      39      36      45      54      10      36      45      54      57      10
      36      45      54      60      10      36      45      54      63      10
      33      27      36      39      11      33      27      36      42      11
      33      27      36      45      12      30      27      36      39      11
      30      27      36      42      11      30      27      36      45      12
      27      36      45      48      10      27      36      45      51      10
      24      18      12      66      10      24      18      27      30      11
      24      18      27      33      11      24      18      27      36      12
      21      18      12      66      10      21      18      27      30      11
      21      18      27      33      11      21      18      27      36      12
      18      27      36      39      12      18      27      36      42      12
      15      12      18      21      10      15      12      18      24      10
      15      12      18      27      10      15      12      66      69       3
      15      12      66      72       3      12      18      27      30      12
      12      18      27      33      12      12      66      72      75       2
       9       0      12      15      10       9       0      12      18      10
       9       0      12      66      10       6       0      12      15      10
       6       0      12      18      10       6       0      12      66      10
       3       0      12      15      10       3       0      12      18      10
       3       0      12      66      10       0      12      18      21      10
       0      12      18      24      10     108     105     111     114       1
     108     105    -111     114       2     105     111     117     120       3
     102      99     165     168      19     102      99     165     171      20
     102      99    -165     171      21     102      99     165     213      22
      99     165     213     216      22      96      93      99     102       1
      96      93     -99     102       2      93      99     165     168      30
      90      84      78     105      10      90      84      93      96      33
      90      84     -93      96       3      90      84     -93      96      34
      90      84      93      99       3      87      84      78     105      10
      87      84      93      96      33      87      84     -93      96       3
      87      84     -93      96      34      87      84      93      99       3
      84      93      99     102       2      81      78      84      87      10
      81      78      84      90      10      81      78      84      93      10
      81      78     105     108      33      81      78    -105     108       3
      81      78    -105     108      34      81      78     105     111       3
      78     105     111     114       2      75      72      78      81       3
      75      72      78      84       3      75      72      78     105       3
      72      78      84      87      10      72      78      84      90      10
     144     141     147     150       1     144     141    -147     150       2
     144     141     147     153       1     144     141    -147     153       2
     138     132     141     144      33     138     132    -141     144       3
     138     132    -141     144      34     138     132     141     147       3
     135     132     141     144      33     135     132    -141     144       3
     135     132    -141     144      34     135     132     141     147       3
     132     141     147     150       2     132     141     147     153       2
     129     123     117     156      10     129     123     132     135      11
     129     123     132     138      11     129     123     132     141      10
     126     123     117     156      10     126     123     132     135      11
     126     123     132     138      11     126     123     132     141      10
     120     117     123     126      10     120     117     123     129      10
     120     117     123     132      10     120     117     156     159       3
     120     117     156     162       3     117     123     132     135      12
     117     123     132     138      12     114     111     117     120       3
     114     111     117     123       3     114     111     117     156       3
     111     117     123     126      10     111     117     123     129      10
     243     246     294     297      64     228     225     231     234      32
     228     225     231     237      32     228     225     231     240      32
     222     219     225     228      66     222     219    -225     228      67
     222     219     225     231      25     219     225     231     234      32
     219     225     231     237      32     219     225     231     240      32
     216     213     219     222      19     216     213     219     225      30
     210     207     201     213      70     207     201     213     216      64
     204     201     195     243      64     204     201     207     210      70
     204     201     213     216      74     204     201     213     219      22
     201     213     219     222      22     198     195     201     204      74
     198     195     201     207      64     198     195     201     213      76
     198     195     243     246      77     195     201     207     210      70
     195     201     213     216      76     195     243     246     249      78
     195     243    -246     249      22     186     180     174     195      76
     186     180     189     192      70     183     180     174     195      76
     183     180     189     192      70     180     174     195     198      76
     177     174     180     183      74     177     174     180     186      74
     177     174     180     189      64     177     174     195     198      74
     177     174     195     201      76     177     174     195     243      64
     174     180     189     192      70     174     195     201     204      76
     171     165     213     216      64     171     174     180     183      64
     171     174     180     186      64     171     174     195     198      64
     168     165     171     174      78     168     165    -171     174      22
     168     165     213     201      76     168     165     213     216      74
     168     165     213     219      22     165     171     174     177      77
     165     213     201     204      76     165     213     219     222      22
     324     327     372     375      64     309     306     312     315      32
     309     306     312     318      32     309     306     312     321      32
     303     300     306     309      66     303     300    -306     309      67
     303     300     306     312      25     300     306     312     315      32
     300     306     312     318      32     300     306     312     321      32
     297     294     300     303      19     297     294     300     306      30
     291     288     282     294      70     288     282     294     297      64
     285     282     276     324      64     285     282     288     291      70
     285     282     294     297      74     285     282     294     300      22
     282     294     300     303      22     279     276     282     285      74
     279     276     282     288      64     279     276     282     294      76
     279     276     324     327      77     276     282     288     291      70
     276     282     294     297      76     276     324     327     330      78
     276     324    -327     330      22     267     261     255     276      76
     267     261     270     273      70     264     261     255     276      76
     264     261     270     273      70     261     255     276     279      76
     258     255     261     264      74     258     255     261     267      74
     258     255     261     270      64     258     255     276     279      74
     258     255     276     282      76     258     255     276     324      64
     255     261     270     273      70     255     276     282     285      76
     252     246     294     297      64     252     255     261     264      64
     252     255     261     267      64     252     255     276     279      64
     249     246     252     255      78     249     246    -252     255      22
     249     246     294     282      76     249     246     294     297      74
     249     246     294     300      22     246     252     255     258      77
     246     294     282     285      76     246     294     300     303      22
     384     705     711     714      64     375     372     366     384      64
     375     372     378     381      70     369     366     372     375      74
     369     366     372     378      64     369     366     384     705      77
     366     372     378     381      70     366     384     705     708      78
     366     384    -705     708      22     363     360     354     366      70
     360     354     366     369      64     357     354     360     363      70
     357     354     366     369      74     357     354     366     372      76
     357     354     366     384      64     354     366     372     375      76
     351     387     393     396      64     348     342     336     354      76
     348     342     351     387      77     345     342     336     354      76
     345     342     351     387      77     342     336     354     357      76
     342     351     387     390      78     342     351    -387     390      22
     339     336     342     345      74     339     336     342     348      74
     339     336     342     351      64     339     336     354     357      74
     339     336     354     360      64     339     336     354     366      76
     336     354     360     363      70     336     354     366     369      76
     333     327     372     375      64     333     336     342     345      64
     333     336     342     348      64     333     336     354     357      64
     330     327     333     336      78     330     327    -333     336      22
     330     327     372     366      76     330     327     372     375      74
     330     327     372     378      64     327     333     336     339      77
     327     372     366     369      76     327     372     378     381      70
     444     576     582     585      64     432     447     453     456      64
     429     423     417     435      64     429     423     432     447      77
     426     423     417     435      64     426     423     432     447      77
     423     432     447     450      78     423     432    -447     450      22
     420     417     411     438      64     420     417     423     426      74
     420     417     423     429      74     420     417     423     432      64
     417     411     438     441      70     414     411     405     444      64
     414     411     417     420      74     414     411     417     423      76
     414     411     417     435      64     414     411     438     441      70
     411     417     423     426      76     411     417     423     429      76
     408     405     411     414      74     408     405     411     417      76
     408     405     411     438      64     408     405     444     576      77
     405     411     417     420      76     405     411     438     441      70
     405     444     576     579      78     405     444    -576     579      22
     402     399     393     405      70     399     393     405     408      64
     396     393     387     435      64     396     393     399     402      70
     396     393     405     408      74     396     393     405     411      76
     396     393     405     444      64     393     405     411     414      76
     390     387     393     396      74     390     387     393     399      64
     390     387     393     405      76     390     387     435     417      78
     390     387    -435     417      22     387     393     399     402      70
     387     393     405     408      76     387     435     417     420      77
     507     510     516     519      64     483     477     471     492      64
     483     477     486     489      70     480     477     471     492      64
     480     477     486     489      70     474     471     465     495      64
     474     471     477     480      74     474     471     477     483      74
     474     471     477     486      64     471     465     495     498      70
     471     477     486     489      70     468     465     459     501      64
     468     465     471     474      74     468     465     471     477      76
     468     465     471     492      64     468     465     495     498      70
     465     459     501     504      70     465     471     477     480      76
     465     471     477     483      76     462     459     453     507      64
     462     459     465     468      74     462     459     465     471      76
     462     459     465     495      64     462     459     501     504      70
     459     465     471     474      76     459     465     495     498      70
     456     453     447     492      64     456     453     459     462      74
     456     453     459     465      76     456     453     459     501      64
     456     453     507     510      77     453     459     465     468      76
     453     459     501     504      70     453     507     510     513      78
     453     507    -510     513      22     450     447     453     456      74
     450     447     453     459      76     450     447     453     507      64
     450     447     492     471      78     450     447    -492     471      22
     447     453     459     462      76     447     492     471     474      77
     546     540     534     555      64     546     540     549     552      70
     543     540     534     555      64     543     540     549     552      70
     537     534     528     558      64     537     534     540     543      74
     537     534     540     546      74     537     534     540     549      64
     534     528     558     561      70     534     540     549     552      70
     531     528     522     564      64     531     528     534     537      74
     531     528     534     540      76     531     528     534     555      64
     531     528     558     561      70     528     522     564     567      70
     528     534     540     543      76     528     534     540     546      76
     525     522     516     570      64     525     522     528     531      74
     525     522     528     534      76     525     522     528     558      64
     525     522     564     567      70     522     516     570     573      70
     522     528     534     537      76     522     528     558     561      70
     519     516     510     555      64     519     516     522     525      74
     519     516     522     528      76     519     516     522     564      64
     519     516     570     573      70     516     522     528     531      76
     516     522     564     567      70     513     510     516     519      74
     513     510     516     522      76     513     510     516     570      64
     513     510     555     534      78     513     510    -555     534      22
     510     516     522     525      76     510     516     570     573      70
     510     555     534     537      77     636     639     645     648      64
     612     606     600     621      64     612     606     615     618      70
     609     606     600     621      64     609     606     615     618      70
     603     600     594     624      64     603     600     606     609      74
     603     600     606     612      74     603     600     606     615      64
     600     594     624     627      70     600     606     615     618      70
     597     594     588     630      64     597     594     600     603      74
     597     594     600     606      76     597     594     600     621      64
     597     594     624     627      70     594     588     630     633      70
     594     600     606     609      76     594     600     606     612      76
     591     588     582     636      64     591     588     594     597      74
     591     588     594     600      76     591     588     594     624      64
     591     588     630     633      70     588     594     600     603      76
     588     594     624     627      70     585     582     576     621      64
     585     582     588     591      74     585     582     588     594      76
     585     582     588     630      64     585     582     636     639      77
     582     588     594     597      76     582     588     630     633      70
     582     636     639     642      78     582     636    -639     642      22
     579     576     582     585      74     579     576     582     588      76
     579     576     582     636      64     579     576     621     600      78
     579     576    -621     600      22     576     582     588     591      76
     576     621     600     603      77     675     669     663     684      64
     675     669     678     681      70     672     669     663     684      64
     672     669     678     681      70     666     663     657     687      64
     666     663     669     672      74     666     663     669     675      74
     666     663     669     678      64     663     657     687     690      70
     663     669     678     681      70     660     657     651     693      64
     660     657     663     666      74     660     657     663     669      76
     660     657     663     684      64     660     657     687     690      70
     657     651     693     696      70     657     663     669     672      76
     657     663     669     675      76     654     651     645     699      64
     654     651     657     660      74     654     651     657     663      76
     654     651     657     687      64     654     651     693     696      70
     651     645     699     702      70     651     657     663     666      76
     651     657     687     690      70     648     645     639     684      64
     648     645     651     654      74     648     645     651     657      76
     648     645     651     693      64     648     645     699     702      70
     645     651     657     660      76     645     651     693     696      70
     642     639     645     648      74     642     639     645     651      76
     642     639     645     699      64     642     639     684     663      78
     642     639    -684     663      22     639     645     651     654      76
     639     645     699     702      70     639     684     663     666      77
     765     768     774     777      64     741     735     729     750      64
     741     735     744     747      70     738     735     729     750      64
     738     735     744     747      70     732     729     723     753      64
     732     729     735     738      74     732     729     735     741      74
     732     729     735     744      64     729     723     753     756      70
     729     735     744     747      70     726     723     717     759      64
     726     723     729     732      74     726     723     729     735      76
     726     723     729     750      64     726     723     753     756      70
     723     717     759     762      70     723     729     735     738      76
     723     729     735     741      76     720     717     711     765      64
     720     717     723     726      74     720     717     723     729      76
     720     717     723     753      64     720     717     759     762      70
     717     723     729     732      76     717     723     753     756      70
     714     711     705     750      64     714     711     717     720      74
     714     711     717     723      76     714     711     717     759      64
     714     711     765     768      77     711     717     723     726      76
     711     717     759     762      70     711     765     768     771      78
     711     765    -768     771      22     708     705     711     714      74
     708     705     711     717      76     708     705     711     765      64
     708     705     750     729      78     708     705    -750     729      22
     705     711     717     720      76     705     750     729     732      77
     828     831     837     840      64     804     798     792     813      64
     804     798     807     810      70     801     798     792     813      64
     801     798     807     810      70     795     792     786     816      64
     795     792     798     801      74     795     792     798     804      74
     795     792     798     807      64     792     786     816     819      70
     792     798     807     810      70     789     786     780     822      64
     789     786     792     795      74     789     786     792     798      76
     789     786     792     813      64     789     786     816     819      70
     786     780     822     825      70     786     792     798     801      76
     786     792     798     804      76     783     780     774     828      64
     783     780     786     789      74     783     780     786     792      76
     783     780     786     816      64     783     780     822     825      70
     780     786     792     795      76     780     786     816     819      70
     777     774     768     813      64     777     774     780     783      74
     777     774     780     786      76     777     774     780     822      64
     777     774     828     831      77     774     780     786     789      76
     774     780     822     825      70     774     828     831     834      78
     774     828    -831     834      22     771     768     774     777      74
     771     768     774     780      76     771     768     774     828      64
     771     768     813     792      78     771     768    -813     792      22
     768     774     780     783      76     768     813     792     795      77
     867     861     855     876      64     867     861     870     873      70
     864     861     855     876      64     864     861     870     873      70
     858     855     849     879      64     858     855     861     864      74
     858     855     861     867      74     858     855     861     870      64
     855     849     879     882      70     855     861     870     873      70
     852     849     843     885      64     852     849     855     858      74
     852     849     855     861      76     852     849     855     876      64
     852     849     879     882      70     849     843     885     888      70
     849     855     861     864      76     849     855     861     867      76
     846     843     837     891      64     846     843     849     852      74
     846     843     849     855      76     846     843     849     879      64
     846     843     885     888      70     843     837     891     894      70
     843     849     855     858      76     843     849     879     882      70
     840     837     831     876      64     840     837     843     846      74
     840     837     843     849      76     840     837     843     885      64
     840     837     891     894      70     837     843     849     852      76
     837     843     885     888      70     834     831     837     840      74
     834     831     837     843      76     834     831     837     891      64
     834     831     876     855      78     834     831    -876     855      22
     831     837     843     846      76     831     837     891     894      70
     831     876     855     858      77      93     165     -99    -102      85
      66      78     -72     -75      86     141     150    -147    -153      85
     105     117    -111    -114      86     225     222    -219    -213      87
     306     294    -300    -303      87
%FLAG DIHEDRALS_WITHOUT_HYDROGEN                                                
%FORMAT(10I8)                                                                   
      69      66      72      78       2      66      72      78      84       1
      66      72     -78      84       4      66      72     -78      84       5
      66      72     -78      84       6      66      72      78     105       7
      66      72     -78     105       8      66      72     -78     105       9
      66      72     -78     105       6      27      18      12      66      10
      27      36      45      54      10      18      12      66      69       3
      18      12      66      72      13      18      12     -66      72      14
      18      12     -66      72      15      18      12     -66      72       6
      18      27      36      45      16      18      27     -36      45      17
      18      27     -36      45      18      12      18      27      36      16
      12      18     -27      36      17      12      18     -27      36      18
      12      66      72      78       2       0      12      18      27      10
       0      12      66      69       3       0      12      66      72       3
     108     105     111     117       2     105     111     117     123       1
     105     111    -117     123       4     105     111    -117     123       5
     105     111    -117     123       6     105     111     117     156       7
     105     111    -117     156       8     105     111    -117     156       9
     105     111    -117     156       6      99     165     171     174      23
      99     165     213     201      24      99     165     213     219      25
      96      93      99     165       2      93      84      78     105      26
      93      84     -78     105      27      93      84     -78     105      28
      93      84     -78     105      29      93      99     165     171      19
      93      99    -165     171      31      93      99     165     213      32
      84      78     105     108       3      84      78     105     111      13
      84      78    -105     111      14      84      78    -105     111      15
      84      78    -105     111       6      84      93      99     165       2
      78      84      93      96       7      78      84      93      99      35
      78      84     -93      99      36      78      84     -93      99      37
      78      84     -93      99      38      78     105     111     117       2
      72      78      84      93      39      72      78     -84      93      40
      72      78     -84      93      28      72      78     -84      93      41
      72      78     105     108       3      72      78     105     111      42
      72      78    -105     111      43      72      78    -105     111      44
      72      78    -105     111       6     132     123     117     156      45
     132     123    -117     156      46     132     123    -117     156      47
     132     123    -117     156      48     123     117     156     159       3
     123     117     156     162       3     123     132     141     144       7
     123     132     141     147      49     123     132    -141     147      50
     123     132    -141     147      51     123     132    -141     147      52
     117     123     132     141      53     117     123    -132     141      54
     117     123    -132     141      55     117     123    -132     141      56
     111     117     123     132      57     111     117    -123     132      58
     111     117    -123     132      47     111     117    -123     132      59
     111     117     156     159       3     111     117     156     162       3
     243     246     252     255      60     243     246    -252     255      61
     243     246    -252     255      62     243     246     294     282      63
     243     246     294     300      65     213     201     195     243      63
     213     219     225     228      68     213     219     225     231      69
     207     201     195     243      71     207     201    -195     243      72
     207     201     213     219      73     201     195     243     246      75
     201     213     219     225      32     195     201     213     219      24
     195     243     246     252      60     195     243    -246     252      61
     195     243    -246     252      62     195     243     246     294      75
     189     180     174     195      22     180     174     195     201      79
     180     174     195     243      63     174     171     165     213      75
     174     195     201     207      22     174     195    -201     213      79
     174     195     243     246      75     171     165     213     201      63
     171     165     213     219      65     171     174     180     189      71
     171     174    -180     189      72     171     174    -195     201      63
     171     174     195     243      80     165     171     174     180      75
     165     171     174     195      75     165     213    -201     195      79
     165     213     201     207      22     165     213     219     225      32
     324     327     333     336      60     324     327    -333     336      61
     324     327    -333     336      62     324     327     372     366      63
     324     327     372     378      71     324     327    -372     378      72
     294     282     276     324      63     294     300     306     309      68
     294     300     306     312      69     288     282     276     324      71
     288     282    -276     324      72     288     282     294     300      73
     282     276     324     327      75     282     294     300     306      32
     276     282     294     300      24     276     324     327     333      60
     276     324    -327     333      61     276     324    -327     333      62
     276     324     327     372      75     270     261     255     276      22
     261     255     276     282      79     261     255     276     324      63
     255     252     246     294      75     255     276     282     288      22
     255     276    -282     294      79     255     276     324     327      75
     252     246     294     282      63     252     246     294     300      65
     252     255     261     270      71     252     255    -261     270      72
     252     255    -276     282      63     252     255     276     324      80
     246     252     255     261      75     246     252     255     276      75
     246     294    -282     276      79     246     294     282     288      22
     246     294     300     306      32     384     705     711     717      63
     384     705     711     765      80     384     705     750     729      60
     384     705    -750     729      61     384     705    -750     729      62
     378     372     366     384      71     378     372    -366     384      72
     372     366     384     705      75     366     384     705     711      75
     366     384     705     750      60     366     384    -705     750      61
     366     384    -705     750      62     360     354     366     372      22
     360     354     366     384      71     360     354    -366     384      72
     354     366     372     378      22     354     366     384     705      75
     351     342     336     354      63     351     387     393     399      71
     351     387    -393     399      72     351     387     393     405      63
     351     387     435     417      60     351     387    -435     417      61
     351     387    -435     417      62     342     336     354     360      22
     342     336     354     366      79     342     351     387     393      75
     342     351     387     435      60     342     351    -387     435      61
     342     351    -387     435      62     336     333     327     372      75
     336     342     351     387      75     336     354    -366     372      79
     336     354     366     384      63     333     327     372     366      63
     333     327     372     378      71     333     327    -372     378      72
     333     336     342     351      80     333     336     354     360      71
     333     336    -354     360      72     333     336    -354     366      63
     327     333     336     342      75     327     333     336     354      75
     327     372    -366     354      79     327     372     366     384      63
     444     576     582     588      63     444     576     582     636      80
     444     576     621     600      60     444     576    -621     600      61
     444     576    -621     600      62     438     411     405     444      71
     438     411    -405     444      72     435     417     411     438      71
     435     417    -411     438      72     432     423     417     435      80
     432     447     453     459      63     432     447     453     507      80
     432     447     492     471      60     432     447    -492     471      61
     432     447    -492     471      62     423     417     411     438      22
     423     432     447     453      75     423     432     447     492      60
     423     432    -447     492      61     423     432    -447     492      62
     417     411     405     444      63     417     423     432     447      75
     411     405     444     576      75     411     417     423     432      63
     405     393     387     435      63     405     411     417     423      79
     405     411    -417     435      63     405     444     576     582      75
     405     444     576     621      60     405     444    -576     621      61
     405     444    -576     621      62     399     393     387     435      71
     399     393    -387     435      72     399     393     405     411      22
     399     393     405     444      71     399     393    -405     444      72
     393     387     435     417      75     393     405    -411     417      79
     393     405     411     438      22     393     405     444     576      75
     387     393     405     411      79     387     393     405     444      63
     387     435    -417     411      75     387     435     417     423      75
     507     510     516     522      63     507     510     516     570      71
     507     510    -516     570      72     507     510     555     534      60
     507     510    -555     534      61     507     510    -555     534      62
     501     459     453     507      71     501     459    -453     507      72
     495     465     459     501      81     495     465    -459     501      82
     495     465    -459     501      83     492     471     465     495      71
     492     471    -465     495      72     492     447     453     507      80
     486     477     471     492      71     486     477    -471     492      72
     477     471     465     495      22     471     465     459     501      22
     465     459     453     507      63     465     471     477     486      22
     459     453     447     492      63     459     453     507     510      75
     459     465     471     477      79     459     465    -471     492      63
     453     447     492     471      75     453     459    -465     471      79
     453     459     465     495      22     453     507     510     516      75
     453     507     510     555      60     453     507    -510     555      61
     453     507    -510     555      62     447     453     459     465      79
     447     453     459     501      22     447     453     507     510      75
     447     492    -471     465      75     447     492     471     477      75
     564     522     516     570      81     564     522    -516     570      82
     564     522    -516     570      83     558     528     522     564      81
     558     528    -522     564      82     558     528    -522     564      83
     555     534     528     558      71     555     534    -528     558      72
     555     510     516     570      71     555     510    -516     570      72
     549     540     534     555      71     549     540    -534     555      72
     540     534     528     558      22     534     528     522     564      22
     528     522     516     570      22     528     534     540     549      22
     522     516     510     555      63     522     528     534     540      79
     522     528    -534     555      63     516     510     555     534      75
     516     522    -528     534      79     516     522     528     558      22
     510     516     522     528      79     510     516     522     564      22
     510     555    -534     528      75     510     555     534     540      75
     636     639     645     651      63     636     639     645     699      71
     636     639    -645     699      72     636     639     684     663      60
     636     639    -684     663      61     636     639    -684     663      62
     630     588     582     636      71     630     588    -582     636      72
     624     594     588     630      81     624     594    -588     630      82
     624     594    -588     630      83     621     600     594     624      71
     621     600    -594     624      72     621     576     582     636      80
     615     606     600     621      71     615     606    -600     621      72
     606     600     594     624      22     600     594     588     630      22
     594     588     582     636      63     594     600     606     615      22
     588     582     576     621      63     588     582     636     639      75
     588     594     600     606      79     588     594    -600     621      63
     582     576     621     600      75     582     588    -594     600      79
     582     588     594     624      22     582     636     639     645      75
     582     636     639     684      60     582     636    -639     684      61
     582     636    -639     684      62     576     582     588     594      79
     576     582     588     630      22     576     582     636     639      75
     576     621    -600     594      75     576     621     600     606      75
     693     651     645     699      81     693     651    -645     699      82
     693     651    -645     699      83     687     657     651     693      81
     687     657    -651     693      82     687     657    -651     693      83
     684     663     657     687      71     684     663    -657     687      72
     684     639     645     699      71     684     639    -645     699      72
     678     669     663     684      71     678     669    -663     684      72
     669     663     657     687      22     663     657     651     693      22
     657     651     645     699      22     657     663     669     678      22
     651     645     639     684      63     651     657     663     669      79
     651     657    -663     684      63     645     639     684     663      75
     645     651    -657     663      79     645     651     657     687      22
     639     645     651     657      79     639     645     651     693      22
     639     684    -663     657      75     639     684     663     669      75
     765     768     774     780      63     765     768     774     828      80
     765     768     813     792      60     765     768    -813     792      61
     765     768    -813     792      62     759     717     711     765      71
     759     717    -711     765      72     753     723     717     759      81
     753     723    -717     759      82     753     723    -717     759      83
     750     729     723     753      71     750     729    -723     753      72
     750     705     711     765      80     744     735     729     750      71
     744     735    -729     750      72     735     729     723     753      22
     729     723     717     759      22     723     717     711     765      63
     723     729     735     744      22     717     711     705     750      63
     717     711     765     768      75     717     723     729     735      79
     717     723    -729     750      63     711     705     750     729      75
     711     717    -723     729      79     711     717     723     753      22
     711     765     768     774      75     711     765     768     813      60
     711     765    -768     813      61     711     765    -768     813      62
     705     711     717     723      79     705     711     717     759      22
     705     711     765     768      75     705     750    -729     723      75
     705     750     729     735      75     828     831     837     843      63
     828     831     837     891      71     828     831    -837     891      72
     828     831     876     855      60     828     831    -876     855      61
     828     831    -876     855      62     822     780     774     828      71
     822     780    -774     828      72     816     786     780     822      81
     816     786    -780     822      82     816     786    -780     822      83
     813     792     786     816      71     813     792    -786     816      72
     813     768     774     828      80     807     798     792     813      71
     807     798    -792     813      72     798     792     786     816      22
     792     786     780     822      22     786     780     774     828      63
     786     792     798     807      22     780     774     768     813      63
     780     774     828     831      75     780     786     792     798      79
     780     786    -792     813      63     774     768     813     792      75
     774     780    -786     792      79     774     780     786     816      22
     774     828     831     837      75     774     828     831     876      60
     774     828    -831     876      61     774     828    -831     876      62
     768     774     780     786      79     768     774     780     822      22
     768     774     828     831      75     768     813    -792     786      75
     768     813     792     798      75     885     843     837     891      81
     885     843    -837     891      82     885     843    -837     891      83
     879     849     843     885      81     879     849    -843     885      82
     879     849    -843     885      83     876     855     849     879      71
     876     855    -849     879      72     876     831     837     891      71
     876     831    -837     891      72     870     861     855     876      71
     870     861    -855     876      72     861     855     849     879      22
     855     849     843     885      22     849     843     837     891      22
     849     855     861     870      22     843     837     831     876      63
     843     849     855     861      79     843     849    -855     876      63
     837     831     876     855      75     837     843    -849     855      79
     837     843     849     879      22     831     837     843     849      79
     831     837     843     885      22     831     876    -855     849      75
     831     876     855     861      75      12      72     -66     -69      84
      78     111    -105    -108      84      84      99     -93     -96      84
     117     159    -156    -162      84     132     147    -141    -144      84
     231     219    -225    -228      84     312     300    -306    -309      84
%FLAG EXCLUDED_ATOMS_LIST                                                       
%FORMAT(10I8)                                                                   
       2       3       4       5       6       7       8       9      10      23
      24      25       3       4       5       6       7      23       4       5
       6       7      23       5       6       7      23       6       7       8
       9      10      11      12      13      23      24      25      26      27
       7       8       9      10      23      24      25       8       9      10
      11      12      13      14      15      16      23      24      25       9
      10      11      12      13      23      10      11      12      13      23
      11      12      13      14      15      16      17      18      19      23
      12      13      14      15      16      13      14      15      16      14
      15      16      17      18      19      20      21      22      15      16
      17      18      19      16      17      18      19      17      18      19
      20      21      22      18      19      20      21      22      19      20
      21      22      20      21      22      21      22      22       0      24
      25      26      27      28      29      36      25      26      27      26
      27      28      29      30      31      32      36      37      38      27
      28      29      36      28      29      30      31      32      33      34
      36      37      38      39      40      29      30      31      32      36
      37      38      30      31      32      33      34      35      36      37
      38      56      31      32      33      34      36      32      33      34
      36      33      34      35      36      56      57      58      72      34
      35      56      35      56      57      58      59      68      72      73
      74      56      57      58      72      37      38      39      40      41
      42      53      38      39      40      39      40      41      42      43
      44      45      53      54      55      40      41      42      53      41
      42      43      44      45      46      47      48      53      54      55
      42      43      44      45      53      54      55      43      44      45
      46      47      48      49      50      53      54      55      44      45
      46      47      48      53      45      46      47      48      53      46
      47      48      49      50      51      52      53      47      48      49
      50      48      49      50      49      50      51      52      50      51
      52      51      52      52       0      54      55      55       0      57
      58      59      60      61      66      68      69      70      72      73
      74      75      76      58      59      68      72      73      74      59
      60      61      62      63      64      66      67      68      72      73
      74      82      60      61      62      63      64      65      66      67
      68      69      70      72      82      83      61      62      63      64
      66      67      68      82      62      63      64      65      66      67
      68      82      63      64      65      66      64      65      66      65
      66       0      67      68      69      70      71      72      73      74
      82      83      84      85      99      68      69      70      72      82
      83      69      70      71      72      73      74      75      76      82
      83      70      71      72      73      74      82      71      72      73
      74      82      72      73      74      75      76      77      78      82
      74      75      76      75      76      77      78      79      80      81
      76      77      78      77      78      79      80      81      78      79
      80      81      79      80      81      80      81      81       0      83
      84      85      86      95      99     100     101      84      85      86
      87      88      93      95      96      97      99     100     101     102
     103      85      86      95      99     100     101      86      87      88
      89      90      91      93      94      95      99     100     101     109
      87      88      89      90      91      92      93      94      95      96
      97      99     109     110      88      89      90      91      93      94
      95     109      89      90      91      92      93      94      95     109
      90      91      92      93      91      92      93      92      93       0
      94      95      96      97      98      99     100     101     109     110
     111     112     125      95      96      97      99     109     110      96
      97      98      99     100     101     102     103     109     110      97
      98      99     100     101     109      98      99     100     101     109
      99     100     101     102     103     104     105     109     101     102
     103     102     103     104     105     106     107     108     103     104
     105     104     105     106     107     108     105     106     107     108
     106     107     108     107     108     108       0     110     111     112
     113     123     125     126     127     111     112     113     114     115
     119     123     124     125     126     127     128     129     112     113
     123     125     126     127     113     114     115     116     117     118
     119     120     121     123     125     126     127     114     115     116
     117     118     119     120     121     122     123     124     125     129
     130     115     116     117     118     119     120     121     123     116
     117     118     119     120     121     123     130     131     132     146
     117     118     119     130     118     119     130     119     130     131
     132     133     134     136     140     146     120     121     122     123
     124     125     126     127     129     236     121     122     123     124
     125     129     122     123     124     125     129     123     124     125
     126     127     128     129     236     237     238     251     125     126
     127     129     236     126     127     128     129     236     127     128
     129     128     129       0     236     237     238     239     240     244
     251     256     131     132     133     134     135     136     137     138
     140     141     142     146     149     132     133     134     136     140
     146     133     134     135     136     137     138     139     140     146
     147     149     193     134     135     136     137     138     146     149
     135     136     137     138     146     149     136     137     138     139
     140     141     142     146     147     148     149     193     194     195
     208     138     139     140     147     149     193     139     140     141
     142     143     144     145     146     147     148     149     193     140
     141     142     146     147     148     149     141     142     143     144
     145     146     147     148     149     150     142     143     144     145
     146     147     143     144     145     146     147     150     151     152
     165     144     145     146     150     145     146     150     146     150
     151     152     153     154     158     165     170     147     148     149
       0     193     194     195     196     197     201     208     213     151
     152     153     154     155     156     158     159     160     165     168
     170     171     152     153     154     158     165     170     153     154
     155     156     157     158     165     166     168     169     170     171
     172     173     186     154     155     156     165     168     170     171
     155     156     157     158     159     160     165     166     167     168
     169     170     171     156     157     158     166     168     169     170
     157     158     159     160     161     162     163     165     166     167
     168     169     170     158     159     160     165     166     167     168
     159     160     161     162     163     164     165     166     167     168
     160     161     162     163     165     166     161     162     163     164
     165     166     162     163     164     165     163     164     165     164
     165       0     166     170     167     168       0     169     170       0
     171     172     173     174     175     179     186     191     172     173
     174     175     176     177     179     180     181     186     189     191
     192     173     174     175     179     186     191     174     175     176
     177     178     179     186     187     189     190     191     192     175
     176     177     186     189     191     192     176     177     178     179
     180     181     186     187     188     189     190     191     192     177
     178     179     187     189     190     191     178     179     180     181
     182     183     184     186     187     188     189     190     191     179
     180     181     186     187     188     189     180     181     182     183
     184     185     186     187     188     189     181     182     183     184
     186     187     182     183     184     185     186     187     183     184
     185     186     184     185     186     185     186       0     187     191
     188     189       0     190     191       0     192       0     194     195
     196     197     198     199     201     202     203     208     211     213
     214     195     196     197     201     208     213     196     197     198
     199     200     201     208     209     211     212     213     214     215
     216     229     197     198     199     208     211     213     214     198
     199     200     201     202     203     208     209     210     211     212
     213     214     199     200     201     209     211     212     213     200
     201     202     203     204     205     206     208     209     210     211
     212     213     201     202     203     208     209     210     211     202
     203     204     205     206     207     208     209     210     211     203
     204     205     206     208     209     204     205     206     207     208
     209     205     206     207     208     206     207     208     207     208
       0     209     213     210     211       0     212     213       0     214
     215     216     217     218     222     229     234     215     216     217
     218     219     220     222     223     224     229     232     234     235
     216     217     218     222     229     234     217     218     219     220
     221     222     229     230     232     233     234     235     218     219
     220     229     232     234     235     219     220     221     222     223
     224     229     230     231     232     233     234     235     220     221
     222     230     232     233     234     221     222     223     224     225
     226     227     229     230     231     232     233     234     222     223
     224     229     230     231     232     223     224     225     226     227
     228     229     230     231     232     224     225     226     227     229
     230     225     226     227     228     229     230     226     227     228
     229     227     228     229     228     229       0     230     234     231
     232       0     233     234       0     235       0     237     238     239
     240     241     242     244     245     246     251     254     256     257
     238     239     240     244     251     256     239     240     241     242
     243     244     251     252     254     255     256     257     258     259
     272     240     241     242     251     254     256     257     241     242
     243     244     245     246     251     252     253     254     255     256
     257     242     243     244     252     254     255     256     243     244
     245     246     247     248     249     251     252     253     254     255
     256     244     245     246     251     252     253     254     245     246
     247     248     249     250     251     252     253     254     246     247
     248     249     251     252     247     248     249     250     251     252
     248     249     250     251     249     250     251     250     251       0
     252     256     253     254       0     255     256       0     257     258
     259     260     261     265     272     277     258     259     260     261
     262     263     265     266     267     272     275     277     278     259
     260     261     265     272     277     260     261     262     263     264
     265     272     273     275     276     277     278     279     280     293
     261     262     263     272     275     277     278     262     263     264
     265     266     267     272     273     274     275     276     277     278
     263     264     265     273     275     276     277     264     265     266
     267     268     269     270     272     273     274     275     276     277
     265     266     267     272     273     274     275     266     267     268
     269     270     271     272     273     274     275     267     268     269
     270     272     273     268     269     270     271     272     273     269
     270     271     272     270     271     272     271     272       0     273
     277     274     275       0     276     277       0     278     279     280
     281     282     286     293     298     279     280     281     282     283
     284     286     287     288     293     296     298     299     280     281
     282     286     293     298     281     282     283     284     285     286
     293     294     296     297     298     299     282     283     284     293
     296     298     299     283     284     285     286     287     288     293
     294     295     296     297     298     299     284     285     286     294
     296     297     298     285     286     287     288     289     290     291
     293     294     295     296     297     298     286     287     288     293
     294     295     296     287     288     289     290     291     292     293
     294     295     296     288     289     290     291     293     294     289
     290     291     292     293     294     290     291     292     293     291
     292     293     292     293       0     294     298     295     296       0
     297     298       0     299       0
%FLAG HBOND_ACOEF                                                               
%FORMAT(5E16.8)                                                                 

%FLAG HBOND_BCOEF                                                               
%FORMAT(5E16.8)                                                                 

%FLAG HBCUT                                                                     
%FORMAT(5E16.8)                                                                 

%FLAG AMBER_ATOM_TYPE                                                           
%FORMAT(20a4)                                                                   
N3  H   H   H   CX  HP  C8  HC  HC  C8  HC  HC  C8  HC  HC  C8  HP  HP  N3  H   
H   H   C   O   N   H   CX  H1  2C  HC  HC  C   O   N   H   C   O   N   H   CX  
H1  2C  HC  HC  2C  HC  HC  C   O   N   H   H   C   O2  O2  Cg  H2  Os  Cg  H1  
Cg  H1  H1  Oh  Ho  Cg  H1  Cg  H1  Oh  Ho  Cg  H1  Ng  H   C   O   Cg  Hc  Hc  
Hc  Os  Cg  H2  Os  Cg  H1  Cg  H1  H1  Oh  Ho  Cg  H1  Cg  H1  Oh  Ho  Cg  H1  
Ng  H   C   O   Cg  Hc  Hc  Hc  Os  Cg  H2  Os  Cg  H1  Cg  H1  H1  Os  Cg  H1  
Oh  Ho  Cg  H1  Cg  H1  Oh  Ho  Os  Cg  H2  Cg  H1  Oh  Ho  Cg  H1  Cg  H1  Cg  
H1  Cg  H1  H1  Os  Os  Oh  Ho  Os  Cg  H2  Cg  H1  Cg  H1  Cg  H1  Cg  H1  Cg  
H1  H1  Oh  Ho  Os  Oh  Ho  Oh  Ho  Os  Cg  H2  Cg  H1  Cg  H1  Cg  H1  Cg  H1  
Cg  H1  H1  Oh  Ho  Os  Oh  Ho  Oh  Ho  Oh  Ho  Cg  H2  Cg  H1  Cg  H1  Cg  H1  
Cg  H1  Cg  H1  H1  Oh  Ho  Os  Oh  Ho  Oh  Ho  Os  Cg  H2  Cg  H1  Cg  H1  Cg  
H1  Cg  H1  Cg  H1  H1  Oh  Ho  Os  Oh  Ho  Oh  Ho  Oh  Ho  Cg  H2  Cg  H1  Cg  
H1  Cg  H1  Cg  H1  Cg  H1  H1  Oh  Ho  Os  Oh  Ho  Oh  Ho  Os  Cg  H2  Cg  H1  
Cg  H1  Cg  H1  Cg  H1  Cg  H1  H1  Oh  Ho  Os  Oh  Ho  Oh  Ho  Os  Cg  H2  Cg  
H1  Cg  H1  Cg  H1  Cg  H1  Cg  H1  H1  Oh  Ho  Os  Oh  Ho  Oh  Ho  Oh  Ho  
%FLAG TREE_CHAIN_CLASSIFICATION                                                 
%FORMAT(20a4)                                                                   
BLA BLA BLA BLA BLA BLA BLA BLA BLA BLA BLA BLA BLA BLA BLA BLA BLA BLA BLA BLA 
BLA BLA BLA BLA M   E   M   E   3   E   E   B   E   S   E   M   E   BLA BLA BLA 
BLA BLA BLA BLA BLA BLA BLA BLA BLA BLA BLA BLA BLA BLA BLA M   E   S   B   E   
3   E   E   S   E   M   E   M   E   S   E   M   E   B   E   B   E   3   E   E   
E   M   M   E   S   B   E   3   E   E   S   E   M   E   M   E   S   E   M   E   
B   E   B   E   3   E   E   E   M   M   E   S   3   E   3   E   E   E   B   E   
S   E   M   E   M   E   S   E   M   M   E   M   E   S   E   M   E   B   E   3   
E   3   E   E   E   S   S   E   M   M   E   M   E   B   E   3   E   3   E   3   
E   E   S   E   S   S   E   S   E   M   M   E   3   E   3   E   3   E   3   E   
3   E   E   S   E   E   S   E   S   E   S   E   M   E   M   E   B   E   3   E   
3   E   3   E   E   S   E   S   S   E   S   E   M   M   E   3   E   3   E   3   
E   3   E   3   E   E   S   E   E   S   E   S   E   S   E   M   E   M   E   B   
E   3   E   3   E   3   E   E   S   E   S   S   E   S   E   M   M   E   M   E   
B   E   3   E   3   E   3   E   E   S   E   S   S   E   S   E   M   M   E   3   
E   3   E   3   E   3   E   3   E   E   S   E   E   S   E   S   E   S   E   
%FLAG JOIN_ARRAY                                                                
%FORMAT(10I8)                                                                   
       0       0       0       0       0       0       0       0       0       0
       0       0       0       0       0       0       0       0       0       0
       0       0       0       0       0       0       0       0       0       0
       0       0       0       0       0       0       0       0       0       0
       0       0       0       0       0       0       0       0       0       0
       0       0       0       0       0       0       0       0       0       0
       0       0       0       0       0       0       0       0       0       0
       0       0       0       0       0       0       0       0       0       0
       0       0       0       0       0       0       0       0       0       0
       0       0       0       0       0       0       0       0       0       0
       0       0       0       0       0       0       0       0       0       0
       0       0       0       0       0       0       0       0       0       0
       0       0       0       0       0       0       0       0       0       0
       0       0       0       0       0       0       0       0       0       0
       0       0       0       0       0       0       0       0       0       0
       0       0       0       0       0       0       0       0       0       0
       0       0       0       0       0       0       0       0       0       0
       0       0       0       0       0       0       0       0       0       0
       0       0       0       0       0       0       0       0       0       0
       0       0       0       0       0       0       0       0       0       0
       0       0       0       0       0       0       0       0       0       0
       0       0       0       0       0       0       0       0       0       0
       0       0       0       0       0       0       0       0       0       0
       0       0       0       0       0       0       0       0       0       0
       0       0       0       0       0       0       0       0       0       0
       0       0       0       0       0       0       0       0       0       0
       0       0       0       0       0       0       0       0       0       0
       0       0       0       0       0       0       0       0       0       0
       0       0       0       0       0       0       0       0       0       0
       0       0       0       0       0       0       0       0       0
%FLAG IROTAT                                                                    
%FORMAT(10I8)                                                                   
       0       0       0       0       0       0       0       0       0       0
       0       0       0       0       0       0       0       0       0       0
       0       0       0       0       0       0       0       0       0       0
       0       0       0       0       0       0       0       0       0       0
       0       0       0       0       0       0       0       0       0       0
       0       0       0       0       0       0       0       0       0       0
       0       0       0       0       0       0       0       0       0       0
       0       0       0       0       0       0       0       0       0       0
       0       0       0       0       0       0       0       0       0       0
       0       0       0       0       0       0       0       0       0       0
       0       0       0       0       0       0       0       0       0       0
       0       0       0       0       0       0       0       0       0       0
       0       0       0       0       0       0       0       0       0       0
       0       0       0       0       0       0       0       0       0       0
       0       0       0       0       0       0       0       0       0       0
       0       0       0       0       0       0       0       0       0       0
       0       0       0       0       0       0       0       0       0       0
       0       0       0       0       0       0       0       0       0       0
       0       0       0       0       0       0       0       0       0       0
       0       0       0       0       0       0       0       0       0       0
       0       0       0       0       0       0       0       0       0       0
       0       0       0       0       0       0       0       0       0       0
       0       0       0       0       0       0       0       0       0       0
       0       0       0       0       0       0       0       0       0       0
       0       0       0       0       0       0       0       0       0       0
       0       0       0       0       0       0       0       0       0       0
       0       0       0       0       0       0       0       0       0       0
       0       0       0       0       0       0       0       0       0       0
       0       0       0       0       0       0       0       0       0       0
       0       0       0       0       0       0       0       0       0
%FLAG RADIUS_SET                                                                
%FORMAT(1a80)                                                                   
H(N)-modified Bondi radii (mbondi2)                                             
%FLAG RADII                                                                     
%FORMAT(5E16.8)                                                                 
  1.55000000E+00  1.30000000E+00  1.30000000E+00  1.30000000E+00  1.70000000E+00
  1.20000000E+00  1.70000000E+00  1.20000000E+00  1.20000000E+00  1.70000000E+00
  1.20000000E+00  1.20000000E+00  1.70000000E+00  1.20000000E+00  1.20000000E+00
  1.70000000E+00  1.20000000E+00  1.20000000E+00  1.55000000E+00  1.30000000E+00
  1.30000000E+00  1.30000000E+00  1.70000000E+00  1.50000000E+00  1.55000000E+00
  1.30000000E+00  1.70000000E+00  1.20000000E+00  1.70000000E+00  1.20000000E+00
  1.20000000E+00  1.70000000E+00  1.50000000E+00  1.55000000E+00  1.30000000E+00
  1.70000000E+00  1.50000000E+00  1.55000000E+00  1.30000000E+00  1.70000000E+00
  1.20000000E+00  1.70000000E+00  1.20000000E+00  1.20000000E+00  1.70000000E+00
  1.20000000E+00  1.20000000E+00  1.70000000E+00  1.50000000E+00  1.55000000E+00
  1.30000000E+00  1.30000000E+00  1.70000000E+00  1.50000000E+00  1.50000000E+00
  1.70000000E+00  1.20000000E+00  1.50000000E+00  1.70000000E+00  1.20000000E+00
  1.70000000E+00  1.20000000E+00  1.20000000E+00  1.50000000E+00  1.20000000E+00
  1.70000000E+00  1.20000000E+00  1.70000000E+00  1.20000000E+00  1.50000000E+00
  1.20000000E+00  1.70000000E+00  1.20000000E+00  1.55000000E+00  1.30000000E+00
  1.70000000E+00  1.50000000E+00  1.70000000E+00  1.20000000E+00  1.20000000E+00
  1.20000000E+00  1.50000000E+00  1.70000000E+00  1.20000000E+00  1.50000000E+00
  1.70000000E+00  1.20000000E+00  1.70000000E+00  1.20000000E+00  1.20000000E+00
  1.50000000E+00  1.20000000E+00  1.70000000E+00  1.20000000E+00  1.70000000E+00
  1.20000000E+00  1.50000000E+00  1.20000000E+00  1.70000000E+00  1.20000000E+00
  1.55000000E+00  1.30000000E+00  1.70000000E+00  1.50000000E+00  1.70000000E+00
  1.20000000E+00  1.20000000E+00  1.20000000E+00  1.50000000E+00  1.70000000E+00
  1.20000000E+00  1.50000000E+00  1.70000000E+00  1.20000000E+00  1.70000000E+00
  1.20000000E+00  1.20000000E+00  1.50000000E+00  1.70000000E+00  1.20000000E+00
  1.50000000E+00  1.20000000E+00  1.70000000E+00  1.20000000E+00  1.70000000E+00
  1.20000000E+00  1.50000000E+00  1.20000000E+00  1.50000000E+00  1.70000000E+00
  1.20000000E+00  1.70000000E+00  1.20000000E+00  1.50000000E+00  1.20000000E+00
  1.70000000E+00  1.20000000E+00  1.70000000E+00  1.20000000E+00  1.70000000E+00
  1.20000000E+00  1.70000000E+00  1.20000000E+00  1.20000000E+00  1.50000000E+00
  1.50000000E+00  1.50000000E+00  1.20000000E+00  1.50000000E+00  1.70000000E+00
  1.20000000E+00  1.70000000E+00  1.20000000E+00  1.70000000E+00  1.20000000E+00
  1.70000000E+00  1.20000000E+00  1.70000000E+00  1.20000000E+00  1.70000000E+00
  1.20000000E+00  1.20000000E+00  1.50000000E+00  1.20000000E+00  1.50000000E+00
  1.50000000E+00  1.20000000E+00  1.50000000E+00  1.20000000E+00  1.50000000E+00
  1.70000000E+00  1.20000000E+00  1.70000000E+00  1.20000000E+00  1.70000000E+00
  1.20000000E+00  1.70000000E+00  1.20000000E+00  1.70000000E+00  1.20000000E+00
  1.70000000E+00  1.20000000E+00  1.20000000E+00  1.50000000E+00  1.20000000E+00
  1.50000000E+00  1.50000000E+00  1.20000000E+00  1.50000000E+00  1.20000000E+00
  1.50000000E+00  1.20000000E+00  1.70000000E+00  1.20000000E+00  1.70000000E+00
  1.20000000E+00  1.70000000E+00  1.20000000E+00  1.70000000E+00  1.20000000E+00
  1.70000000E+00  1.20000000E+00  1.70000000E+00  1.20000000E+00  1.20000000E+00
  1.50000000E+00  1.20000000E+00  1.50000000E+00  1.50000000E+00  1.20000000E+00
  1.50000000E+00  1.20000000E+00  1.50000000E+00  1.70000000E+00  1.20000000E+00
  1.70000000E+00  1.20000000E+00  1.70000000E+00  1.20000000E+00  1.70000000E+00
  1.20000000E+00  1.70000000E+00  1.20000000E+00  1.70000000E+00  1.20000000E+00
  1.20000000E+00  1.50000000E+00  1.20000000E+00  1.50000000E+00  1.50000000E+00
  1.20000000E+00  1.50000000E+00  1.20000000E+00  1.50000000E+00  1.20000000E+00
  1.70000000E+00  1.20000000E+00  1.70000000E+00  1.20000000E+00  1.70000000E+00
  1.20000000E+00  1.70000000E+00  1.20000000E+00  1.70000000E+00  1.20000000E+00
  1.70000000E+00  1.20000000E+00  1.20000000E+00  1.50000000E+00  1.20000000E+00
  1.50000000E+00  1.50000000E+00  1.20000000E+00  1.50000000E+00  1.20000000E+00
  1.50000000E+00  1.70000000E+00  1.20000000E+00  1.70000000E+00  1.20000000E+00
  1.70000000E+00  1.20000000E+00  1.70000000E+00  1.20000000E+00  1.70000000E+00
  1.20000000E+00  1.70000000E+00  1.20000000E+00  1.20000000E+00  1.50000000E+00
  1.20000000E+00  1.50000000E+00  1.50000000E+00  1.20000000E+00  1.50000000E+00
  1.20000000E+00  1.50000000E+00  1.70000000E+00  1.20000000E+00  1.70000000E+00
  1.20000000E+00  1.70000000E+00  1.20000000E+00  1.70000000E+00  1.20000000E+00
  1.70000000E+00  1.20000000E+00  1.70000000E+00  1.20000000E+00  1.20000000E+00
  1.50000000E+00  1.20000000E+00  1.50000000E+00  1.50000000E+00  1.20000000E+00
  1.50000000E+00  1.20000000E+00  1.50000000E+00  1.20000000E+00
%FLAG SCREEN                                                                    
%FORMAT(5E16.8)                                                                 
  7.90000000E-01  8.50000000E-01  8.50000000E-01  8.50000000E-01  7.20000000E-01
  8.50000000E-01  7.20000000E-01  8.50000000E-01  8.50000000E-01  7.20000000E-01
  8.50000000E-01  8.50000000E-01  7.20000000E-01  8.50000000E-01  8.50000000E-01
  7.20000000E-01  8.50000000E-01  8.50000000E-01  7.90000000E-01  8.50000000E-01
  8.50000000E-01  8.50000000E-01  7.20000000E-01  8.50000000E-01  7.90000000E-01
  8.50000000E-01  7.20000000E-01  8.50000000E-01  7.20000000E-01  8.50000000E-01
  8.50000000E-01  7.20000000E-01  8.50000000E-01  7.90000000E-01  8.50000000E-01
  7.20000000E-01  8.50000000E-01  7.90000000E-01  8.50000000E-01  7.20000000E-01
  8.50000000E-01  7.20000000E-01  8.50000000E-01  8.50000000E-01  7.20000000E-01
  8.50000000E-01  8.50000000E-01  7.20000000E-01  8.50000000E-01  7.90000000E-01
  8.50000000E-01  8.50000000E-01  7.20000000E-01  8.50000000E-01  8.50000000E-01
  7.20000000E-01  8.50000000E-01  8.50000000E-01  7.20000000E-01  8.50000000E-01
  7.20000000E-01  8.50000000E-01  8.50000000E-01  8.50000000E-01  8.50000000E-01
  7.20000000E-01  8.50000000E-01  7.20000000E-01  8.50000000E-01  8.50000000E-01
  8.50000000E-01  7.20000000E-01  8.50000000E-01  7.90000000E-01  8.50000000E-01
  7.20000000E-01  8.50000000E-01  7.20000000E-01  8.50000000E-01  8.50000000E-01
  8.50000000E-01  8.50000000E-01  7.20000000E-01  8.50000000E-01  8.50000000E-01
  7.20000000E-01  8.50000000E-01  7.20000000E-01  8.50000000E-01  8.50000000E-01
  8.50000000E-01  8.50000000E-01  7.20000000E-01  8.50000000E-01  7.20000000E-01
  8.50000000E-01  8.50000000E-01  8.50000000E-01  7.20000000E-01  8.50000000E-01
  7.90000000E-01  8.50000000E-01  7.20000000E-01  8.50000000E-01  7.20000000E-01
  8.50000000E-01  8.50000000E-01  8.50000000E-01  8.50000000E-01  7.20000000E-01
  8.50000000E-01  8.50000000E-01  7.20000000E-01  8.50000000E-01  7.20000000E-01
  8.50000000E-01  8.50000000E-01  8.50000000E-01  7.20000000E-01  8.50000000E-01
  8.50000000E-01  8.50000000E-01  7.20000000E-01  8.50000000E-01  7.20000000E-01
  8.50000000E-01  8.50000000E-01  8.50000000E-01  8.50000000E-01  7.20000000E-01
  8.50000000E-01  7.20000000E-01  8.50000000E-01  8.50000000E-01  8.50000000E-01
  7.20000000E-01  8.50000000E-01  7.20000000E-01  8.50000000E-01  7.20000000E-01
  8.50000000E-01  7.20000000E-01  8.50000000E-01  8.50000000E-01  8.50000000E-01
  8.50000000E-01  8.50000000E-01  8.50000000E-01  8.50000000E-01  7.20000000E-01
  8.50000000E-01  7.20000000E-01  8.50000000E-01  7.20000000E-01  8.50000000E-01
  7.20000000E-01  8.50000000E-01  7.20000000E-01  8.50000000E-01  7.20000000E-01
  8.50000000E-01  8.50000000E-01  8.50000000E-01  8.50000000E-01  8.50000000E-01
  8.50000000E-01  8.50000000E-01  8.50000000E-01  8.50000000E-01  8.50000000E-01
  7.20000000E-01  8.50000000E-01  7.20000000E-01  8.50000000E-01  7.20000000E-01
  8.50000000E-01  7.20000000E-01  8.50000000E-01  7.20000000E-01  8.50000000E-01
  7.20000000E-01  8.50000000E-01  8.50000000E-01  8.50000000E-01  8.50000000E-01
  8.50000000E-01  8.50000000E-01  8.50000000E-01  8.50000000E-01  8.50000000E-01
  8.50000000E-01  8.50000000E-01  7.20000000E-01  8.50000000E-01  7.20000000E-01
  8.50000000E-01  7.20000000E-01  8.50000000E-01  7.20000000E-01  8.50000000E-01
  7.20000000E-01  8.50000000E-01  7.20000000E-01  8.50000000E-01  8.50000000E-01
  8.50000000E-01  8.50000000E-01  8.50000000E-01  8.50000000E-01  8.50000000E-01
  8.50000000E-01  8.50000000E-01  8.50000000E-01  7.20000000E-01  8.50000000E-01
  7.20000000E-01  8.50000000E-01  7.20000000E-01  8.50000000E-01  7.20000000E-01
  8.50000000E-01  7.20000000E-01  8.50000000E-01  7.20000000E-01  8.50000000E-01
  8.50000000E-01  8.50000000E-01  8.50000000E-01  8.50000000E-01  8.50000000E-01
  8.50000000E-01  8.50000000E-01  8.50000000E-01  8.50000000E-01  8.50000000E-01
  7.20000000E-01  8.50000000E-01  7.20000000E-01  8.50000000E-01  7.20000000E-01
  8.50000000E-01  7.20000000E-01  8.50000000E-01  7.20000000E-01  8.50000000E-01
  7.20000000E-01  8.50000000E-01  8.50000000E-01  8.50000000E-01  8.50000000E-01
  8.50000000E-01  8.50000000E-01  8.50000000E-01  8.50000000E-01  8.50000000E-01
  8.50000000E-01  7.20000000E-01  8.50000000E-01  7.20000000E-01  8.50000000E-01
  7.20000000E-01  8.50000000E-01  7.20000000E-01  8.50000000E-01  7.20000000E-01
  8.50000000E-01  7.20000000E-01  8.50000000E-01  8.50000000E-01  8.50000000E-01
  8.50000000E-01  8.50000000E-01  8.50000000E-01  8.50000000E-01  8.50000000E-01
  8.50000000E-01  8.50000000E-01  7.20000000E-01  8.50000000E-01  7.20000000E-01
  8.50000000E-01  7.20000000E-01  8.50000000E-01  7.20000000E-01  8.50000000E-01
  7.20000000E-01  8.50000000E-01  7.20000000E-01  8.50000000E-01  8.50000000E-01
  8.50000000E-01  8.50000000E-01  8.50000000E-01  8.50000000E-01  8.50000000E-01
  8.50000000E-01  8.50000000E-01  8.50000000E-01  8.50000000E-01
%FLAG IPOL                                                                      
%FORMAT(1I8)                                                                    
       0
%FLAG CMAP_COUNT                                                                
%FORMAT(2I8)                                                                    
       0       0                                                                
%FLAG CMAP_RESOLUTION                                                           
%FORMAT(20I4)                                                                   

%FLAG CMAP_INDEX                                                                
%FORMAT(6I8)                                                                    

