
   32  0.0000000e+00
   1.9068585   1.4272319   1.0346690   1.9766115   2.2873448   0.3688084
   1.2215400   3.0242622   0.6425177   1.8252584   1.9654410  -0.6615169
   3.3495787   2.9019448   0.5064496   4.1615742   2.4260308   1.2891446
   3.6052352   3.9674380  -0.2490794   2.8828084   4.3150133  -0.8633602
   4.8822913   4.6861604  -0.2623808   5.3026795   4.6671888   0.7431386
   5.8621275   3.9741355  -1.2086535   5.9774297   2.9400685  -0.8837380
   5.4375571   3.9567330  -2.2124578   7.2353655   4.6164933  -1.2624960
   7.5455636   5.5452353  -2.2748597   6.8120712   5.7882088  -3.0294830
   8.8074541   6.1664516  -2.3000717   9.0419823   6.8805265  -3.0756846
   9.7642857   5.8557558  -1.3174526  10.7349288   6.3288301  -1.3407309
   9.4582176   4.9260855  -0.3078446  10.1952231   4.6840984   0.4436462
   8.1945133   4.3090150  -0.2790044   7.9614353   3.5958183   0.4978576
   4.6798080   6.1540741  -0.6682457   3.8256279   6.4520288  -1.5022904
   5.4569125   7.0671159  -0.0717920   6.1551982   6.7375410   0.5791942
   5.4045361   8.5005087  -0.3524641   4.3666711   8.8271958  -0.4173636
   5.9059876   9.0571016   0.4393170   5.8951843   8.7056702  -1.3039780
