
   26  0.0000000e+00
   2.4554330   0.8890887   0.1483466   2.2386938   1.9525996   0.0482195
   1.6332069   2.2784388   0.8939302   1.7083463   2.1298164  -0.8874224
   3.5487553   2.7201635   0.0408922   4.5998225   2.0879464   0.0027627
   3.5197535   4.0651497   0.0626849   2.3454052   4.9129802  -0.0564322
   1.9469514   5.1180339   0.9372289   1.5777035   4.4680864  -0.6895259
   2.8605324   6.2022161  -0.6888920   2.2271901   7.0547581  -0.4435922
   2.9375875   6.0748804  -1.7687166   4.2579639   6.3356358  -0.0826703
   4.1777146   6.8261033   0.8874879   4.9241805   6.9010144  -0.7343061
   4.7317904   4.8831812   0.0866971   5.3531259   4.6079025  -0.7655305
   5.5271220   4.6955436   1.3883267   4.9819407   4.8474309   2.4801421
   6.8305850   4.4166753   1.2698244   7.1959370   4.2592344   0.3414762
   7.7266973   4.2221314   2.4073943   7.3494607   3.4121829   3.0318087
   8.7299609   3.9717454   2.0625840   7.7643955   5.1328605   3.0051792
