%VERSION  VERSION_STAMP = V0001.000  DATE = 03/03/26  17:08:51                  
%FLAG TITLE                                                                     
%FORMAT(20a4)                                                                   
U5                                                                              
%FLAG POINTERS                                                                  
%FORMAT(10I8)                                                                   
     187      14      65     135     149     208     339     430       0       0
    1046       6     135     208     430      45      94      78      28       0
       0       0       0       0       0       0       0       0      34       0
       0
%FLAG ATOM_NAME                                                                 
%FORMAT(20a4)                                                                   
HO5'O5' C5' H5' H5''C4' H4' O4' C1' H1' N1  C6  H6  C5  H5  C4  O4  N3  H3  C2  
O2  C3' H3' C2' H2' O2' HO2'O3' P   OP1 OP2 O5' C5' H5' H5''C4' H4' O4' C1' H1' 
N9  C8  H8  N7  C5  C6  N6  H61 H62 N1  C2  H2  N3  C4  C3' H3' C2' H2' O2' HO2'
O3' P   OP1 OP2 O5' C5' H5' H5''C4' H4' O4' C1' H1' N9  C8  H8  N7  C5  C6  O6  
N1  H1  C2  N2  H21 H22 N3  C4  C3' H3' C2' H2' O2' HO2'O3' P   OP1 OP2 O5' C5' 
H5' H5''C4' H4' O4' C1' H1' N1  C6  H6  C5  H5  C4  N4  H41 H42 N3  C2  O2  C3' 
H3' C2' H2' O2' HO2'O3' P   OP1 OP2 O5' C5' H5' H5''C4' H4' O4' C1' H1' N1  C6  
H6  C5  H5  C4  O4  N3  H3  C2  O2  C3' H3' C2' H2' O2' HO2'O3' P   OP1 OP2 O5' 
C5' H5' H5''C4' H4' O4' C1' H1' N1  C6  H6  C5  H5  C4  O4  N3  H3  C2  O2  C3' 
H3' C2' H2' O2' HO2'O3' HO3'
%FLAG CHARGE                                                                    
%FORMAT(5E16.8)                                                                 
  7.82647785E+00 -1.13397373E+01  1.01680434E+00  1.23729417E+00  1.23729417E+00
  1.94067495E+00  2.13929802E+00 -6.46527204E+00  1.22818302E+00  3.32374752E+00
  7.61692140E-01 -2.05183098E+00  3.98703924E+00 -6.62380605E+00  3.30005853E+00
  1.08459130E+01 -1.04978670E+01 -6.46709427E+00  5.74731342E+00  8.54079201E+00
 -9.98035371E+00  3.68454906E+00  1.12067145E+00  1.22089410E+00  1.77120756E+00
 -1.11866700E+01  7.62785478E+00 -9.55941858E+00  2.12508463E+01 -1.41405048E+01
 -1.41405048E+01 -9.09110547E+00  1.01680434E+00  1.23729417E+00  1.23729417E+00
  1.94067495E+00  2.13929802E+00 -6.46527204E+00  7.17958620E-01  3.65721561E+00
 -4.57379730E-01  3.65539338E+00  2.82992319E+00 -1.10664028E+01  9.38448450E-01
  1.27720101E+01 -1.64346924E+01  7.49847645E+00  7.49847645E+00 -1.38762815E+01
  1.07056013E+01  8.61914790E-01 -1.27501433E+01  5.56326819E+00  3.68454906E+00
  1.12067145E+00  1.22089410E+00  1.77120756E+00 -1.11866700E+01  7.62785478E+00
 -9.55941858E+00  2.12508463E+01 -1.41405048E+01 -1.41405048E+01 -9.09110547E+00
  1.01680434E+00  1.23729417E+00  1.23729417E+00  1.94067495E+00  2.13929802E+00
 -6.46527204E+00  3.48045930E-01  3.65539338E+00  8.96537160E-01  2.50374402E+00
  2.98845720E+00 -1.04031111E+01  3.17796912E+00  8.69203710E+00 -1.01990213E+01
 -8.72301501E+00  6.23931552E+00  1.39528151E+01 -1.76246086E+01  7.95221172E+00
  7.95221172E+00 -1.15219603E+01  2.22676506E+00  3.68454906E+00  1.12067145E+00
  1.22089410E+00  1.77120756E+00 -1.11866700E+01  7.62785478E+00 -9.55941858E+00
  2.12508463E+01 -1.41405048E+01 -1.41405048E+01 -9.09110547E+00  1.01680434E+00
  1.23729417E+00  1.23729417E+00  1.94067495E+00  2.13929802E+00 -6.46527204E+00
  1.20267180E-01  3.69730467E+00 -8.81959320E-01  9.65781900E-02  3.56792634E+00
 -9.50292945E+00  3.51325944E+00  1.49149526E+01 -1.73658519E+01  7.71532182E+00
  7.71532182E+00 -1.38197923E+01  1.37359697E+01 -1.13925820E+01  3.68454906E+00
  1.12067145E+00  1.22089410E+00  1.77120756E+00 -1.11866700E+01  7.62785478E+00
 -9.55941858E+00  2.12508463E+01 -1.41405048E+01 -1.41405048E+01 -9.09110547E+00
  1.01680434E+00  1.23729417E+00  1.23729417E+00  1.94067495E+00  2.13929802E+00
 -6.46527204E+00  1.22818302E+00  3.32374752E+00  7.61692140E-01 -2.05183098E+00
  3.98703924E+00 -6.62380605E+00  3.30005853E+00  1.08459130E+01 -1.04978670E+01
 -6.46709427E+00  5.74731342E+00  8.54079201E+00 -9.98035371E+00  3.68454906E+00
  1.12067145E+00  1.22089410E+00  1.77120756E+00 -1.11866700E+01  7.62785478E+00
 -9.55941858E+00  2.12508463E+01 -1.41405048E+01 -1.41405048E+01 -9.09110547E+00
  1.01680434E+00  1.23729417E+00  1.23729417E+00  1.94067495E+00  2.13929802E+00
 -6.46527204E+00  1.22818302E+00  3.32374752E+00  7.61692140E-01 -2.05183098E+00
  3.98703924E+00 -6.62380605E+00  3.30005853E+00  1.08459130E+01 -1.04978670E+01
 -6.46709427E+00  5.74731342E+00  8.54079201E+00 -9.98035371E+00  3.68454906E+00
  1.12067145E+00  1.22089410E+00  1.77120756E+00 -1.11866700E+01  7.62785478E+00
 -1.19192064E+01  7.97407848E+00
%FLAG ATOMIC_NUMBER                                                             
%FORMAT(10I8)                                                                   
       1       8       6       1       1       6       1       8       6       1
       7       6       1       6       1       6       8       7       1       6
       8       6       1       6       1       8       1       8      15       8
       8       8       6       1       1       6       1       8       6       1
       7       6       1       7       6       6       7       1       1       7
       6       1       7       6       6       1       6       1       8       1
       8      15       8       8       8       6       1       1       6       1
       8       6       1       7       6       1       7       6       6       8
       7       1       6       7       1       1       7       6       6       1
       6       1       8       1       8      15       8       8       8       6
       1       1       6       1       8       6       1       7       6       1
       6       1       6       7       1       1       7       6       8       6
       1       6       1       8       1       8      15       8       8       8
       6       1       1       6       1       8       6       1       7       6
       1       6       1       6       8       7       1       6       8       6
       1       6       1       8       1       8      15       8       8       8
       6       1       1       6       1       8       6       1       7       6
       1       6       1       6       8       7       1       6       8       6
       1       6       1       8       1       8       1
%FLAG MASS                                                                      
%FORMAT(5E16.8)                                                                 
  1.00800000E+00  1.60000000E+01  1.20100000E+01  1.00800000E+00  1.00800000E+00
  1.20100000E+01  1.00800000E+00  1.60000000E+01  1.20100000E+01  1.00800000E+00
  1.40100000E+01  1.20100000E+01  1.00800000E+00  1.20100000E+01  1.00800000E+00
  1.20100000E+01  1.60000000E+01  1.40100000E+01  1.00800000E+00  1.20100000E+01
  1.60000000E+01  1.20100000E+01  1.00800000E+00  1.20100000E+01  1.00800000E+00
  1.60000000E+01  1.00800000E+00  1.60000000E+01  3.09700000E+01  1.60000000E+01
  1.60000000E+01  1.60000000E+01  1.20100000E+01  1.00800000E+00  1.00800000E+00
  1.20100000E+01  1.00800000E+00  1.60000000E+01  1.20100000E+01  1.00800000E+00
  1.40100000E+01  1.20100000E+01  1.00800000E+00  1.40100000E+01  1.20100000E+01
  1.20100000E+01  1.40100000E+01  1.00800000E+00  1.00800000E+00  1.40100000E+01
  1.20100000E+01  1.00800000E+00  1.40100000E+01  1.20100000E+01  1.20100000E+01
  1.00800000E+00  1.20100000E+01  1.00800000E+00  1.60000000E+01  1.00800000E+00
  1.60000000E+01  3.09700000E+01  1.60000000E+01  1.60000000E+01  1.60000000E+01
  1.20100000E+01  1.00800000E+00  1.00800000E+00  1.20100000E+01  1.00800000E+00
  1.60000000E+01  1.20100000E+01  1.00800000E+00  1.40100000E+01  1.20100000E+01
  1.00800000E+00  1.40100000E+01  1.20100000E+01  1.20100000E+01  1.60000000E+01
  1.40100000E+01  1.00800000E+00  1.20100000E+01  1.40100000E+01  1.00800000E+00
  1.00800000E+00  1.40100000E+01  1.20100000E+01  1.20100000E+01  1.00800000E+00
  1.20100000E+01  1.00800000E+00  1.60000000E+01  1.00800000E+00  1.60000000E+01
  3.09700000E+01  1.60000000E+01  1.60000000E+01  1.60000000E+01  1.20100000E+01
  1.00800000E+00  1.00800000E+00  1.20100000E+01  1.00800000E+00  1.60000000E+01
  1.20100000E+01  1.00800000E+00  1.40100000E+01  1.20100000E+01  1.00800000E+00
  1.20100000E+01  1.00800000E+00  1.20100000E+01  1.40100000E+01  1.00800000E+00
  1.00800000E+00  1.40100000E+01  1.20100000E+01  1.60000000E+01  1.20100000E+01
  1.00800000E+00  1.20100000E+01  1.00800000E+00  1.60000000E+01  1.00800000E+00
  1.60000000E+01  3.09700000E+01  1.60000000E+01  1.60000000E+01  1.60000000E+01
  1.20100000E+01  1.00800000E+00  1.00800000E+00  1.20100000E+01  1.00800000E+00
  1.60000000E+01  1.20100000E+01  1.00800000E+00  1.40100000E+01  1.20100000E+01
  1.00800000E+00  1.20100000E+01  1.00800000E+00  1.20100000E+01  1.60000000E+01
  1.40100000E+01  1.00800000E+00  1.20100000E+01  1.60000000E+01  1.20100000E+01
  1.00800000E+00  1.20100000E+01  1.00800000E+00  1.60000000E+01  1.00800000E+00
  1.60000000E+01  3.09700000E+01  1.60000000E+01  1.60000000E+01  1.60000000E+01
  1.20100000E+01  1.00800000E+00  1.00800000E+00  1.20100000E+01  1.00800000E+00
  1.60000000E+01  1.20100000E+01  1.00800000E+00  1.40100000E+01  1.20100000E+01
  1.00800000E+00  1.20100000E+01  1.00800000E+00  1.20100000E+01  1.60000000E+01
  1.40100000E+01  1.00800000E+00  1.20100000E+01  1.60000000E+01  1.20100000E+01
  1.00800000E+00  1.20100000E+01  1.00800000E+00  1.60000000E+01  1.00800000E+00
  1.60000000E+01  1.00800000E+00
%FLAG ATOM_TYPE_INDEX                                                           
%FORMAT(10I8)                                                                   
       1       2       3       4       4       3       4       5       3       6
       7       8       9       8      10       8      11       7      12       8
      11       3       4       3       4       2       1       5      13      11
      11       5       3       4       4       3       4       5       3       6
       7       8      14       7       8       8       7      12      12       7
       8      14       7       8       3       4       3       4       2       1
       5      13      11      11       5       3       4       4       3       4
       5       3       6       7       8      14       7       8       8      11
       7      12       8       7      12      12       7       8       3       4
       3       4       2       1       5      13      11      11       5       3
       4       4       3       4       5       3       6       7       8       9
       8      10       8       7      12      12       7       8      11       3
       4       3       4       2       1       5      13      11      11       5
       3       4       4       3       4       5       3       6       7       8
       9       8      10       8      11       7      12       8      11       3
       4       3       4       2       1       5      13      11      11       5
       3       4       4       3       4       5       3       6       7       8
       9       8      10       8      11       7      12       8      11       3
       4       3       4       2       1       2       1
%FLAG NUMBER_EXCLUDED_ATOMS                                                     
%FORMAT(10I8)                                                                   
       5       7      10       5       4      12       6      11      15       7
      13       9       4       6       3       5       3       3       2       2
       1      10       5       5       3       2       1       5       7       3
       2       7      10       5       4      12       6      11      15       7
      12       7       3       6       8       8       5       2       1       4
       3       2       1       1      10       5       5       3       2       1
       5       7       3       2       7      10       5       4      12       6
      11      15       7      12       7       3       6       7       7       4
       7       3       5       4       2       1       1       1      10       5
       5       3       2       1       5       7       3       2       7      10
       5       4      12       6      11      15       7      12       9       4
       7       3       6       4       2       1       2       2       1      10
       5       5       3       2       1       5       7       3       2       7
      10       5       4      12       6      11      15       7      13       9
       4       6       3       5       3       3       2       2       1      10
       5       5       3       2       1       5       7       3       2       7
      10       5       4      12       6      11      15       7      13       9
       4       6       3       5       3       3       2       2       1       7
       5       5       3       2       1       1       1
%FLAG NONBONDED_PARM_INDEX                                                      
%FORMAT(10I8)                                                                   
       1       2       4       7      11      16      22      29      37      46
      56      67      79      92       2       3       5       8      12      17
      23      30      38      47      57      68      80      93       4       5
       6       9      13      18      24      31      39      48      58      69
      81      94       7       8       9      10      14      19      25      32
      40      49      59      70      82      95      11      12      13      14
      15      20      26      33      41      50      60      71      83      96
      16      17      18      19      20      21      27      34      42      51
      61      72      84      97      22      23      24      25      26      27
      28      35      43      52      62      73      85      98      29      30
      31      32      33      34      35      36      44      53      63      74
      86      99      37      38      39      40      41      42      43      44
      45      54      64      75      87     100      46      47      48      49
      50      51      52      53      54      55      65      76      88     101
      56      57      58      59      60      61      62      63      64      65
      66      77      89     102      67      68      69      70      71      72
      73      74      75      76      77      78      90     103      79      80
      81      82      83      84      85      86      87      88      89      90
      91     104      92      93      94      95      96      97      98      99
     100     101     102     103     104     105
%FLAG RESIDUE_LABEL                                                             
%FORMAT(20a4)                                                                   
U5  A   G   C   U   U3  
%FLAG RESIDUE_POINTER                                                           
%FORMAT(10I8)                                                                   
       1      29      62      96     127     157
%FLAG BOND_FORCE_CONSTANT                                                       
%FORMAT(5E16.8)                                                                 
  2.30000000E+02  5.53000000E+02  3.40000000E+02  3.20000000E+02  3.10000000E+02
  3.20000000E+02  5.70000000E+02  4.34000000E+02  4.18000000E+02  3.67000000E+02
  4.10000000E+02  3.67000000E+02  5.49000000E+02  4.48000000E+02  4.24000000E+02
  3.40000000E+02  3.37000000E+02  3.40000000E+02  3.10000000E+02  3.20000000E+02
  4.61000000E+02  3.67000000E+02  5.02000000E+02  4.34000000E+02  4.81000000E+02
  4.83000000E+02  4.69000000E+02  5.20000000E+02  4.14000000E+02  3.67000000E+02
  5.29000000E+02  4.40000000E+02  4.36000000E+02  3.20000000E+02  5.25000000E+02
  4.27000000E+02  4.47000000E+02  3.67000000E+02  5.29000000E+02  4.40000000E+02
  4.57000000E+02  4.27000000E+02  3.67000000E+02  5.49000000E+02  4.48000000E+02
%FLAG BOND_EQUIL_VALUE                                                          
%FORMAT(5E16.8)                                                                 
  1.61000000E+00  9.60000000E-01  1.09000000E+00  1.41000000E+00  1.52600000E+00
  1.41000000E+00  1.22900000E+00  1.01000000E+00  1.38800000E+00  1.08000000E+00
  1.44400000E+00  1.08000000E+00  1.35000000E+00  1.36500000E+00  1.38300000E+00
  1.09000000E+00  1.47500000E+00  1.09000000E+00  1.52600000E+00  1.41000000E+00
  1.35400000E+00  1.08000000E+00  1.32400000E+00  1.01000000E+00  1.34000000E+00
  1.33900000E+00  1.40400000E+00  1.37000000E+00  1.39100000E+00  1.08000000E+00
  1.30400000E+00  1.37100000E+00  1.37400000E+00  1.41000000E+00  1.48000000E+00
  1.38100000E+00  1.41900000E+00  1.08000000E+00  1.30400000E+00  1.37100000E+00
  1.35800000E+00  1.43300000E+00  1.08000000E+00  1.35000000E+00  1.36500000E+00
%FLAG ANGLE_FORCE_CONSTANT                                                      
%FORMAT(5E16.8)                                                                 
  1.00000000E+02  4.50000000E+01  5.00000000E+01  5.00000000E+01  5.50000000E+01
  5.00000000E+01  5.00000000E+01  5.00000000E+01  1.00000000E+02  5.00000000E+01
  8.00000000E+01  7.00000000E+01  5.00000000E+01  8.00000000E+01  7.00000000E+01
  5.00000000E+01  7.00000000E+01  5.00000000E+01  6.30000000E+01  5.00000000E+01
  5.00000000E+01  7.00000000E+01  7.00000000E+01  8.00000000E+01  5.00000000E+01
  5.00000000E+01  7.00000000E+01  7.00000000E+01  4.00000000E+01  5.00000000E+01
  5.00000000E+01  6.00000000E+01  5.00000000E+01  3.50000000E+01  5.00000000E+01
  5.00000000E+01  4.00000000E+01  5.00000000E+01  5.00000000E+01  5.50000000E+01
  5.00000000E+01  7.00000000E+01  7.00000000E+01  3.50000000E+01  7.00000000E+01
  6.30000000E+01  5.00000000E+01  7.00000000E+01  7.00000000E+01  7.00000000E+01
  7.00000000E+01  7.00000000E+01  7.00000000E+01  5.00000000E+01  7.00000000E+01
  7.00000000E+01  5.00000000E+01  7.00000000E+01  7.00000000E+01  7.00000000E+01
  7.00000000E+01  7.00000000E+01  5.00000000E+01  5.00000000E+01  1.40000000E+02
  1.00000000E+02  7.00000000E+01  5.00000000E+01  7.00000000E+01  7.00000000E+01
  6.30000000E+01  7.00000000E+01  8.00000000E+01  7.00000000E+01  7.00000000E+01
  5.00000000E+01  7.00000000E+01  7.00000000E+01  5.00000000E+01  7.00000000E+01
  7.00000000E+01  8.00000000E+01  7.00000000E+01  5.00000000E+01  7.00000000E+01
  7.00000000E+01  5.00000000E+01  7.00000000E+01  5.00000000E+01  6.30000000E+01
  5.00000000E+01  7.00000000E+01  7.00000000E+01  7.00000000E+01
%FLAG ANGLE_EQUIL_VALUE                                                         
%FORMAT(5E16.8)                                                                 
  1.88897066E+00  1.79070858E+00  1.91113635E+00  1.91113635E+00  1.89368305E+00
  1.91113635E+00  1.91113635E+00  1.91113635E+00  2.10312265E+00  2.03854544E+00
  2.10486798E+00  2.20609712E+00  2.08916001E+00  2.18689849E+00  1.99142153E+00
  2.08916001E+00  2.12232128E+00  2.08916001E+00  2.10661331E+00  1.91113635E+00
  2.07868803E+00  2.11533996E+00  2.01411082E+00  2.11010397E+00  1.91113635E+00
  1.91113635E+00  2.11533996E+00  2.05250808E+00  1.91113635E+00  1.91113635E+00
  1.91113635E+00  1.91113635E+00  1.91113635E+00  1.91113635E+00  1.91113635E+00
  1.91113635E+00  1.91113635E+00  1.91113635E+00  1.91113635E+00  1.89368305E+00
  2.01498349E+00  1.93731630E+00  2.25322103E+00  2.09439600E+00  2.08217869E+00
  2.04727209E+00  2.09439600E+00  2.06996138E+00  2.15548255E+00  2.04727209E+00
  2.22878641E+00  2.31081692E+00  1.92684432E+00  2.14762857E+00  1.83957782E+00
  1.81165254E+00  2.14762857E+00  1.98793087E+00  1.85354046E+00  2.20260646E+00
  2.24798504E+00  2.19562514E+00  1.91113635E+00  1.91113635E+00  2.09265067E+00
  2.10312265E+00  1.95826026E+00  2.05948940E+00  2.02458280E+00  2.15199189E+00
  2.08043336E+00  2.18515316E+00  2.24798504E+00  1.94255229E+00  2.26892900E+00
  2.14762857E+00  1.83957782E+00  1.81165254E+00  2.14762857E+00  1.98793087E+00
  2.24798504E+00  2.13802925E+00  2.10312265E+00  2.15199189E+00  2.09614133E+00
  2.12057595E+00  2.08916001E+00  2.12232128E+00  2.08916001E+00  2.04203610E+00
  2.07868803E+00  2.11533996E+00  2.06996138E+00  2.11533996E+00
%FLAG DIHEDRAL_FORCE_CONSTANT                                                   
%FORMAT(5E16.8)                                                                 
  1.85181000E-01  1.25653100E+00  3.54858000E-01  1.17500000E+00  1.44000000E-01
  2.50000000E-01  0.00000000E+00  1.66666667E-01  3.83333333E-01  1.55555556E-01
  1.60000000E-01  2.50000000E-01  1.20000000E+00  0.00000000E+00  1.35000000E+00
  2.17500000E+00  1.85000000E+00  6.65000000E+00  1.23590000E+00  6.83638000E-01
  2.27701000E+00  1.47500000E-01  1.45000000E+00  3.00000000E-01  1.00000000E-01
  3.83000000E-01  4.09516000E-02  6.04617000E-01  2.68699000E+00  1.04774000E-02
  6.50000000E-01  2.00000000E-01  2.50000000E-01  1.80000000E-01  1.17804000E+00
  9.21020000E-02  9.62830000E-01  6.80000000E+00  3.50000000E+00  2.40000000E+00
  4.80000000E+00  5.45000000E+00  4.15000000E+00  1.70000000E+00  1.00000000E+01
  1.60354000E+00  2.78197000E-01  1.26798000E+00  2.28818000E-01  1.65000000E+00
  2.55000000E+00  1.35557000E+00  5.04875000E-01  1.69943000E+00  1.52425000E-01
  1.50000000E+00  3.00000000E+00  1.04792000E+00  5.16452000E-02  9.05523000E-01
  1.31907000E-01  8.35436000E-01  7.89849000E-01  3.51892000E-01  1.83535000E-01
  4.00000000E+00  1.72480000E+00  6.26840000E-01  2.28789000E+00  6.64267000E-02
  3.31762000E-01  5.92225000E-01  3.10818000E+00  1.16806000E-01  1.05000000E+01
  1.00000000E+00  1.10000000E+00  0.00000000E+00
%FLAG DIHEDRAL_PERIODICITY                                                      
%FORMAT(5E16.8)                                                                 
  1.00000000E+00  2.00000000E+00  3.00000000E+00  2.00000000E+00  3.00000000E+00
  1.00000000E+00  3.00000000E+00  3.00000000E+00  3.00000000E+00  3.00000000E+00
  3.00000000E+00  3.00000000E+00  2.00000000E+00  2.00000000E+00  2.00000000E+00
  2.00000000E+00  2.00000000E+00  2.00000000E+00  1.00000000E+00  2.00000000E+00
  3.00000000E+00  4.00000000E+00  2.00000000E+00  3.00000000E+00  2.00000000E+00
  3.00000000E+00  1.00000000E+00  2.00000000E+00  3.00000000E+00  4.00000000E+00
  2.00000000E+00  1.00000000E+00  2.00000000E+00  3.00000000E+00  1.00000000E+00
  2.00000000E+00  3.00000000E+00  2.00000000E+00  2.00000000E+00  2.00000000E+00
  2.00000000E+00  2.00000000E+00  2.00000000E+00  2.00000000E+00  2.00000000E+00
  1.00000000E+00  2.00000000E+00  3.00000000E+00  4.00000000E+00  2.00000000E+00
  2.00000000E+00  1.00000000E+00  2.00000000E+00  3.00000000E+00  4.00000000E+00
  2.00000000E+00  2.00000000E+00  1.00000000E+00  2.00000000E+00  3.00000000E+00
  4.00000000E+00  1.00000000E+00  2.00000000E+00  3.00000000E+00  4.00000000E+00
  2.00000000E+00  1.00000000E+00  2.00000000E+00  3.00000000E+00  4.00000000E+00
  1.00000000E+00  2.00000000E+00  3.00000000E+00  4.00000000E+00  2.00000000E+00
  2.00000000E+00  2.00000000E+00  2.00000000E+00
%FLAG DIHEDRAL_PHASE                                                            
%FORMAT(5E16.8)                                                                 
  5.54929070E-01  6.14285649E+00  6.23514744E+00  0.00000000E+00  0.00000000E+00
  0.00000000E+00  0.00000000E+00  0.00000000E+00  0.00000000E+00  0.00000000E+00
  0.00000000E+00  0.00000000E+00  0.00000000E+00  0.00000000E+00  3.14159400E+00
  3.14159400E+00  3.14159400E+00  3.14159400E+00  0.00000000E+00  3.14159400E+00
  0.00000000E+00  0.00000000E+00  3.14159400E+00  0.00000000E+00  3.14159400E+00
  0.00000000E+00  0.00000000E+00  0.00000000E+00  3.14159400E+00  3.14159400E+00
  0.00000000E+00  3.14159400E+00  3.14159400E+00  0.00000000E+00  3.33317067E+00
  5.15976777E+00  6.07541257E+00  3.14159400E+00  3.14159400E+00  3.14159400E+00
  3.14159400E+00  3.14159400E+00  3.14159400E+00  3.14159400E+00  3.14159400E+00
  0.00000000E+00  3.14159400E+00  0.00000000E+00  0.00000000E+00  3.14159400E+00
  3.14159400E+00  0.00000000E+00  0.00000000E+00  3.14159400E+00  0.00000000E+00
  3.14159400E+00  3.14159400E+00  0.00000000E+00  3.14159400E+00  3.14159400E+00
  0.00000000E+00  0.00000000E+00  0.00000000E+00  0.00000000E+00  0.00000000E+00
  3.14159400E+00  0.00000000E+00  3.14159400E+00  0.00000000E+00  0.00000000E+00
  0.00000000E+00  0.00000000E+00  3.14159400E+00  3.14159400E+00  3.14159400E+00
  3.14159400E+00  3.14159400E+00  3.14159400E+00
%FLAG SCEE_SCALE_FACTOR                                                         
%FORMAT(5E16.8)                                                                 
  1.20000000E+00  1.20000000E+00  1.20000000E+00  1.20000000E+00  1.20000000E+00
  1.20000000E+00  1.20000000E+00  1.20000000E+00  1.20000000E+00  1.20000000E+00
  1.20000000E+00  1.20000000E+00  1.20000000E+00  1.20000000E+00  1.20000000E+00
  1.20000000E+00  1.20000000E+00  1.20000000E+00  1.20000000E+00  1.20000000E+00
  1.20000000E+00  1.20000000E+00  1.20000000E+00  1.20000000E+00  1.20000000E+00
  1.20000000E+00  1.20000000E+00  1.20000000E+00  1.20000000E+00  1.20000000E+00
  1.20000000E+00  1.20000000E+00  1.20000000E+00  1.20000000E+00  1.20000000E+00
  1.20000000E+00  1.20000000E+00  1.20000000E+00  1.20000000E+00  1.20000000E+00
  1.20000000E+00  1.20000000E+00  1.20000000E+00  1.20000000E+00  1.20000000E+00
  1.20000000E+00  1.20000000E+00  1.20000000E+00  1.20000000E+00  1.20000000E+00
  1.20000000E+00  1.20000000E+00  1.20000000E+00  1.20000000E+00  1.20000000E+00
  1.20000000E+00  1.20000000E+00  1.20000000E+00  1.20000000E+00  1.20000000E+00
  1.20000000E+00  1.20000000E+00  1.20000000E+00  1.20000000E+00  1.20000000E+00
  1.20000000E+00  1.20000000E+00  1.20000000E+00  1.20000000E+00  1.20000000E+00
  1.20000000E+00  1.20000000E+00  1.20000000E+00  1.20000000E+00  0.00000000E+00
  0.00000000E+00  0.00000000E+00  0.00000000E+00
%FLAG SCNB_SCALE_FACTOR                                                         
%FORMAT(5E16.8)                                                                 
  2.00000000E+00  2.00000000E+00  2.00000000E+00  2.00000000E+00  2.00000000E+00
  2.00000000E+00  2.00000000E+00  2.00000000E+00  2.00000000E+00  2.00000000E+00
  2.00000000E+00  2.00000000E+00  2.00000000E+00  2.00000000E+00  2.00000000E+00
  2.00000000E+00  2.00000000E+00  2.00000000E+00  2.00000000E+00  2.00000000E+00
  2.00000000E+00  2.00000000E+00  2.00000000E+00  2.00000000E+00  2.00000000E+00
  2.00000000E+00  2.00000000E+00  2.00000000E+00  2.00000000E+00  2.00000000E+00
  2.00000000E+00  2.00000000E+00  2.00000000E+00  2.00000000E+00  2.00000000E+00
  2.00000000E+00  2.00000000E+00  2.00000000E+00  2.00000000E+00  2.00000000E+00
  2.00000000E+00  2.00000000E+00  2.00000000E+00  2.00000000E+00  2.00000000E+00
  2.00000000E+00  2.00000000E+00  2.00000000E+00  2.00000000E+00  2.00000000E+00
  2.00000000E+00  2.00000000E+00  2.00000000E+00  2.00000000E+00  2.00000000E+00
  2.00000000E+00  2.00000000E+00  2.00000000E+00  2.00000000E+00  2.00000000E+00
  2.00000000E+00  2.00000000E+00  2.00000000E+00  2.00000000E+00  2.00000000E+00
  2.00000000E+00  2.00000000E+00  2.00000000E+00  2.00000000E+00  2.00000000E+00
  2.00000000E+00  2.00000000E+00  2.00000000E+00  2.00000000E+00  0.00000000E+00
  0.00000000E+00  0.00000000E+00  0.00000000E+00
%FLAG SOLTY                                                                     
%FORMAT(5E16.8)                                                                 
  0.00000000E+00  0.00000000E+00  0.00000000E+00  0.00000000E+00  0.00000000E+00
  0.00000000E+00  0.00000000E+00  0.00000000E+00  0.00000000E+00  0.00000000E+00
  0.00000000E+00  0.00000000E+00  0.00000000E+00  0.00000000E+00  0.00000000E+00
  0.00000000E+00  0.00000000E+00  0.00000000E+00  0.00000000E+00  0.00000000E+00
  0.00000000E+00  0.00000000E+00  0.00000000E+00  0.00000000E+00  0.00000000E+00
  0.00000000E+00  0.00000000E+00  0.00000000E+00
%FLAG LENNARD_JONES_ACOEF                                                       
%FORMAT(5E16.8)                                                                 
  0.00000000E+00  0.00000000E+00  5.81803229E+05  0.00000000E+00  7.91544157E+05
  1.04308023E+06  0.00000000E+00  4.66922514E+04  6.78771368E+04  3.25969625E+03
  0.00000000E+00  4.58874091E+05  6.28541240E+05  3.63097246E+04  3.61397723E+05
  0.00000000E+00  3.15360051E+04  4.68930885E+04  2.09814978E+03  2.44050579E+04
  1.32801250E+03  0.00000000E+00  7.44975864E+05  9.95480466E+05  6.20665997E+04
  5.89818288E+05  4.24594555E+04  9.44293233E+05  0.00000000E+00  7.01803794E+05
  9.24822270E+05  6.01816484E+04  5.57281136E+05  4.15766412E+04  8.82619071E+05
  8.19971662E+05  0.00000000E+00  4.96707306E+04  7.18621074E+04  3.50301067E+03
  3.86654993E+04  2.26273716E+03  6.58473870E+04  6.37148278E+04  3.76169105E+03
  0.00000000E+00  6.00750218E+04  8.59947003E+04  4.33325458E+03  4.68711055E+04
  2.82099197E+03  7.91627154E+04  7.62451550E+04  4.64559155E+03  5.71629601E+03
  0.00000000E+00  4.71003287E+05  6.47841731E+05  3.69471530E+04  3.70622491E+05
  2.47595516E+04  6.06829342E+05  5.74393458E+05  3.93690817E+04  4.77908183E+04
  3.79876399E+05  0.00000000E+00  1.40467023E+03  2.56678134E+03  5.94667300E+01
  1.03954408E+03  3.20009193E+01  2.12601181E+03  2.27577561E+03  6.63368273E+01
  8.90987508E+01  1.02595236E+03  1.39982777E-01  0.00000000E+00  1.98683736E+06
  2.54188684E+06  1.81087383E+05  1.58759528E+06  1.27716552E+05  2.45746558E+06
  2.25370349E+06  1.90880272E+05  2.26202022E+05  1.64263766E+06  8.41065839E+03
  6.02589390E+06  0.00000000E+00  4.09427581E+04  5.98885646E+04  2.82099197E+03
  3.17965283E+04  1.80748014E+03  5.46147253E+04  5.30987710E+04  3.03448006E+03
  3.76169105E+03  3.23283631E+04  4.90239937E+01  1.60682053E+05  2.43828624E+03
%FLAG LENNARD_JONES_BCOEF                                                       
%FORMAT(5E16.8)                                                                 
  0.00000000E+00  0.00000000E+00  6.99746810E+02  0.00000000E+00  6.93079947E+02
  6.75612247E+02  0.00000000E+00  1.03606917E+02  1.06076943E+02  1.43076527E+01
  0.00000000E+00  5.89183300E+02  5.85549272E+02  8.66220817E+01  4.95732238E+02
  0.00000000E+00  8.51470647E+01  8.81685417E+01  1.14788417E+01  7.10161395E+01
  9.13231543E+00  0.00000000E+00  7.50714425E+02  7.36907417E+02  1.13252061E+02
  6.33305958E+02  9.36708259E+01  8.01323529E+02  0.00000000E+00  6.14502845E+02
  5.99015525E+02  9.40505980E+01  5.19163331E+02  7.81725398E+01  6.53361429E+02
  5.31102864E+02  0.00000000E+00  1.05648788E+02  1.07908863E+02  1.46638650E+01
  8.83744760E+01  1.17854122E+01  1.15327881E+02  9.56748258E+01  1.50233639E+01
  0.00000000E+00  1.16187983E+02  1.18043746E+02  1.63092814E+01  9.73010751E+01
  1.31591746E+01  1.26451907E+02  1.04660679E+02  1.66953734E+01  1.85196588E+01
  0.00000000E+00  6.29300710E+02  6.26720080E+02  9.21192136E+01  5.29252520E+02
  7.54103785E+01  6.77220874E+02  5.55666448E+02  9.40124296E+01  1.03580945E+02
  5.64885984E+02  0.00000000E+00  1.79702257E+01  2.06278363E+01  1.93248820E+00
  1.46567808E+01  1.41762397E+00  2.09604198E+01  1.82891803E+01  2.01792524E+00
  2.33864085E+00  1.53505284E+01  9.37598976E-02  0.00000000E+00  1.27682121E+03
  1.22636552E+03  2.01468199E+02  1.08210555E+03  1.69194406E+02  1.34630496E+03
  1.08732781E+03  2.04498832E+02  2.22617115E+02  1.16041466E+03  4.34187588E+01
  2.19561270E+03  0.00000000E+00  9.59185913E+01  9.85097219E+01  1.31591746E+01
  8.01410250E+01  1.05333009E+01  1.05031585E+02  8.73413012E+01  1.34932874E+01
  1.50233639E+01  8.51921330E+01  1.73473071E+00  1.87626421E+02  1.20953369E+01
%FLAG BONDS_INC_HYDROGEN                                                        
%FORMAT(10I8)                                                                   
      75      78       2      69      72       3      63      66       3      51
      54       8      39      42      10      33      36      12      24      27
      16      15      18       3       6       9      18       6      12      18
       0       3       2     174     177       2     168     171       3     162
     165       3     150     153      22     138     141      24     138     144
      24     123     126      30     114     117      16     105     108       3
      96      99      18      96     102      18     276     279       2     270
     273       3     264     267       3     249     252      24     249     255
      24     240     243       8     222     225      38     213     216      16
     204     207       3     195     198      18     195     201      18     369
     372       2     363     366       3     357     360       3     339     342
      24     339     345      24     330     333      10     324     327      43
     315     318      16     306     309       3     297     300      18     297
     303      18     459     462       2     453     456       3     447     450
       3     435     438       8     423     426      10     417     420      12
     408     411      16     399     402       3     390     393      18     390
     396      18     555     558       2     549     552       2     543     546
       3     537     540       3     525     528       8     513     516      10
     507     510      12     498     501      16     489     492       3     480
     483      18     480     486      18
%FLAG BONDS_WITHOUT_HYDROGEN                                                    
%FORMAT(10I8)                                                                   
      81      84       1      69      75       4      63      69       5      63
      81       6      57      60       7      51      57       9      45      48
       7      45      51       9      39      45      11      33      39      13
      30      33      14      30      57      15      24      30      17      24
      69       5      21      24       6      15      21       6      15      63
       5       6      15      19       3       6      20     180     183       1
     168     174       4     162     168       5     162     180       6     156
     159      21     150     156      23     147     150      23     135     138
      25     135     147      26     132     135      27     132     159      28
     129     132      29     123     129      31     120     123      32     120
     159      33     114     120      17     114     168       5     111     114
       6     105     111       6     105     162       5      96     105      19
      93      96      34      84      87      35      84      90      35      84
      93       1     282     285       1     270     276       4     264     270
       5     264     282       6     258     261      21     246     249      25
     246     258      26     240     246      36     234     237       7     234
     240       9     231     234      37     231     261      28     228     231
      29     222     228      39     219     222      40     219     261      33
     213     219      17     213     270       5     210     213       6     204
     210       6     204     264       5     195     204      19     192     195
      34     183     186      35     183     189      35     183     192       1
     375     378       1     363     369       4     357     363       5     357
     375       6     351     354       7     348     351      41     336     339
      25     336     348      26     330     336      42     324     330      44
     321     324      45     321     351      15     315     321      17     315
     363       5     312     315       6     306     312       6     306     357
       5     297     306      19     294     297      34     285     288      35
     285     291      35     285     294       1     465     468       1     453
     459       4     447     453       5     447     465       6     441     444
       7     435     441       9     429     432       7     429     435       9
     423     429      11     417     423      13     414     417      14     414
     441      15     408     414      17     408     453       5     405     408
       6     399     405       6     399     447       5     390     399      19
     387     390      34     378     381      35     378     384      35     378
     387       1     543     549       4     537     543       5     537     555
       4     531     534       7     525     531       9     519     522       7
     519     525       9     513     519      11     507     513      13     504
     507      14     504     531      15     498     504      17     498     543
       5     495     498       6     489     495       6     489     537       5
     480     489      19     477     480      34     468     471      35     468
     474      35     468     477       1
%FLAG ANGLES_INC_HYDROGEN                                                       
%FORMAT(10I8)                                                                   
      72      69      75       3      69      75      78       5      66      63
      69       6      66      63      81       7      63      69      72       6
      54      51      57      10      45      51      54      10      42      39
      45      13      36      33      39      16      33      39      42      18
      30      33      36      21      27      24      30      25      27      24
      69      26      24      69      72       6      21      24      27      30
      18      15      21       7      18      15      63       6      15      63
      66       6      12       6      15      33       9       6      12      34
       9       6      15      33       6      15      18      35       3       6
       9      38       3       6      12      38       0       3       6      40
     171     168     174       3     168     174     177       5     165     162
     168       6     165     162     180       7     162     168     171       6
     153     150     156      41     147     150     153      41     141     138
     144      44     135     138     141      47     135     138     144      47
     126     123     129      54     120     123     126      57     117     114
     120      25     117     114     168      26     114     168     171       6
     111     114     117      30     108     105     111       7     108     105
     162       6     105     162     165       6     102      96     105      33
      99      96     102      34      99      96     105      33      96     105
     108      35      93      96      99      63      93      96     102      63
     273     270     276       3     270     276     279       5     267     264
     270       6     267     264     282       7     264     270     273       6
     252     249     255      44     246     249     252      47     246     249
     255      47     243     240     246      68     234     240     243      10
     225     222     228      76     219     222     225      79     216     213
     219      25     216     213     270      26     213     270     273       6
     210     213     216      30     207     204     210       7     207     204
     264       6     204     264     267       6     201     195     204      33
     198     195     201      34     198     195     204      33     195     204
     207      35     192     195     198      63     192     195     201      63
     366     363     369       3     363     369     372       5     360     357
     363       6     360     357     375       7     357     363     366       6
     342     339     345      44     336     339     342      47     336     339
     345      47     333     330     336      84     327     324     330      87
     324     330     333      89     321     324     327      91     318     315
     321      25     318     315     363      26     315     363     366       6
     312     315     318      30     309     306     312       7     309     306
     357       6     306     357     360       6     303     297     306      33
     300     297     303      34     300     297     306      33     297     306
     309      35     294     297     300      63     294     297     303      63
     456     453     459       3     453     459     462       5     450     447
     453       6     450     447     465       7     447     453     456       6
     438     435     441      10     429     435     438      10     426     423
     429      13     420     417     423      16     417     423     426      18
     414     417     420      21     411     408     414      25     411     408
     453      26     408     453     456       6     405     408     411      30
     402     399     405       7     402     399     447       6     399     447
     450       6     396     390     399      33     393     390     396      34
     393     390     399      33     390     399     402      35     387     390
     393      63     387     390     396      63     546     543     549       3
     543     549     552       5     540     537     543       6     540     537
     555       3     537     543     546       6     537     555     558       5
     528     525     531      10     519     525     528      10     516     513
     519      13     510     507     513      16     507     513     516      18
     504     507     510      21     501     498     504      25     501     498
     543      26     498     543     546       6     495     498     501      30
     492     489     495       7     492     489     537       6     489     537
     540       6     486     480     489      33     483     480     486      34
     483     480     489      33     480     489     492      35     477     480
     483      63     477     480     486      63
%FLAG ANGLES_WITHOUT_HYDROGEN                                                   
%FORMAT(10I8)                                                                   
      81      84      87       1      81      84      90       1      81      84
      93       2      69      63      81       4      63      69      75       8
      63      81      84       9      51      57      60      11      48      45
      51      11      45      51      57      12      39      45      48      14
      39      45      51      15      33      30      57      17      33      39
      45      19      30      24      69      20      30      33      39      22
      30      57      51      23      30      57      60      24      24      30
      33      27      24      30      57      28      24      69      63      29
      24      69      75       8      21      15      63       4      21      24
      30      31      21      24      69       4      15      21      24      32
      15      63      69      29      15      63      81       4       6      15
      21      36       6      15      63      37       3       6      15      39
     180     183     186       1     180     183     189       1     180     183
     192       2     168     162     180       4     162     168     174       8
     162     180     183       9     150     156     159      42     147     150
     156      43     138     135     147      45     135     132     159      46
     135     147     150      48     132     135     138      49     132     135
     147      50     132     159     156      51     129     132     135      52
     129     132     159      53     123     120     159      55     123     129
     132      56     120     114     168      20     120     123     129      58
     120     159     132      59     120     159     156      60     114     120
     123      61     114     120     159      62     114     168     162      29
     114     168     174       8     111     105     162       4     111     114
     120      31     111     114     168       4     105     111     114      32
     105     162     168      29     105     162     180       4      96     105
     111      36      96     105     162      37      93      96     105      64
      90      84      93       1      87      84      90      65      87      84
      93       1      84      93      96      66     282     285     288       1
     282     285     291       1     282     285     294       2     270     264
     282       4     264     270     276       8     264     282     285       9
     249     246     258      45     246     258     261      67     240     246
     249      69     240     246     258      70     237     234     240      11
     234     231     261      71     234     240     246      72     231     234
     237      73     231     234     240      74     231     261     258      51
     228     231     234      75     228     231     261      53     222     219
     261      77     222     228     231      78     219     213     270      20
     219     222     228      80     219     261     231      59     219     261
     258      60     213     219     222      81     213     219     261      62
     213     270     264      29     213     270     276       8     210     204
     264       4     210     213     219      31     210     213     270       4
     204     210     213      32     204     264     270      29     204     264
     282       4     195     204     210      36     195     204     264      37
     192     195     204      64     189     183     192       1     186     183
     189      65     186     183     192       1     183     192     195      66
     375     378     381       1     375     378     384       1     375     378
     387       2     363     357     375       4     357     363     369       8
     357     375     378       9     348     351     354      82     339     336
     348      45     336     348     351      83     330     336     339      85
     330     336     348      86     324     321     351      88     324     330
     336      90     321     315     363      20     321     324     330      92
     321     351     348      93     321     351     354      24     315     321
     324      94     315     321     351      28     315     363     357      29
     315     363     369       8     312     306     357       4     312     315
     321      31     312     315     363       4     306     312     315      32
     306     357     363      29     306     357     375       4     297     306
     312      36     297     306     357      37     294     297     306      64
     291     285     294       1     288     285     291      65     288     285
     294       1     285     294     297      66     465     468     471       1
     465     468     474       1     465     468     477       2     453     447
     465       4     447     453     459       8     447     465     468       9
     435     441     444      11     432     429     435      11     429     435
     441      12     423     429     432      14     423     429     435      15
     417     414     441      17     417     423     429      19     414     408
     453      20     414     417     423      22     414     441     435      23
     414     441     444      24     408     414     417      27     408     414
     441      28     408     453     447      29     408     453     459       8
     405     399     447       4     405     408     414      31     405     408
     453       4     399     405     408      32     399     447     453      29
     399     447     465       4     390     399     405      36     390     399
     447      37     387     390     399      64     384     378     387       1
     381     378     384      65     381     378     387       1     378     387
     390      66     543     537     555       8     537     543     549       8
     525     531     534      11     522     519     525      11     519     525
     531      12     513     519     522      14     513     519     525      15
     507     504     531      17     507     513     519      19     504     498
     543      20     504     507     513      22     504     531     525      23
     504     531     534      24     498     504     507      27     498     504
     531      28     498     543     537      29     498     543     549       8
     495     489     537       4     495     498     504      31     495     498
     543       4     489     495     498      32     489     537     543      29
     489     537     555       8     480     489     495      36     480     489
     537      37     477     480     489      64     474     468     477       1
     471     468     474      65     471     468     477       1     468     477
     480      66
%FLAG DIHEDRALS_INC_HYDROGEN                                                    
%FORMAT(10I8)                                                                   
      72      69      63      81       6      72      69     -63      81       7
      72      69      75      78       8      66      63      69      72      10
      66      63      69      75       6      66      63     -69      75       7
      66      63      81      84       9      63      69      75      78       6
      63      69     -75      78      11      54      51      57      60      15
      48      45      51      54      15      42      39      45      48      16
      42      39      45      51      16      39      45      51      54      15
      36      33      30      57      17      36      33      39      42      18
      36      33      39      45      18      30      24      69      72      10
      30      33      39      42      18      30      57      51      54      15
      27      24      30      33      14      27      24      30      57      14
      27      24      69      63      10      27      24      69      72      10
      27      24      69      75      10      24      30      33      36      17
      24      69      63      66      10      24      69      75      78       6
      24      69     -75      78      11      21      15      63      66       6
      21      15     -63      66       7      21      24      69      72       6
      21      24     -69      72       7      18      15      21      24       9
      18      15      63      66      10      18      15      63      69      10
      18      15      63      81       6      18      15     -63      81       7
      15      21      24      27       9      15      63      69      72      10
      12       6      15      18      10      12       6      15      21       6
      12       6     -15      21       7      12       6      15      63      10
       9       6      15      18      10       9       6      15      21       6
       9       6     -15      21       7       9       6      15      63      10
       6      15      63      66      10       3       6      15      18       6
       3       6     -15      18       7       0       3       6       9       8
       0       3       6      12       8       0       3       6      15       8
     171     168     162     180       6     171     168    -162     180       7
     171     168     174     177       8     165     162     168     171      10
     165     162     168     174       6     165     162    -168     174       7
     165     162     180     183       9     162     168     174     177       6
     162     168    -174     177      11     153     150     156     159      38
     144     138     135     147      40     141     138     135     147      40
     135     147     150     153      38     132     135     138     141      40
     132     135     138     144      40     126     123     120     159      44
     126     123     129     132      45     120     114     168     171      10
     117     114     120     123      14     117     114     120     159      14
     117     114     168     162      10     117     114     168     171      10
     117     114     168     174      10     114     120     123     126      44
     114     168     162     165      10     114     168     174     177       6
     114     168    -174     177      11     111     105     162     165       6
     111     105    -162     165       7     111     114     168     171       6
     111     114    -168     171       7     108     105     111     114       9
     108     105     162     165      10     108     105     162     168      10
     108     105     162     180       6     108     105    -162     180       7
     105     111     114     117       9     105     162     168     171      10
     102      96     105     108      10     102      96     105     111       6
     102      96    -105     111       7     102      96     105     162      10
      99      96     105     108      10      99      96     105     111       6
      99      96    -105     111       7      99      96     105     162      10
      96     105     162     165      10      93      96     105     108       6
      93      96    -105     108       7      84      93      96      99       9
      84      93      96     102       9     273     270     264     282       6
     273     270    -264     282       7     273     270     276     279       8
     267     264     270     273      10     267     264     270     276       6
     267     264    -270     276       7     267     264     282     285       9
     264     270     276     279       6     264     270    -276     279      11
     255     249     246     258      40     252     249     246     258      40
     243     240     246     249      56     243     240     246     258      56
     240     246     249     252      40     240     246     249     255      40
     237     234     240     243      15     231     234     240     243      15
     225     222     219     261      44     225     222     228     231      45
     219     213     270     273      10     216     213     219     222      14
     216     213     219     261      14     216     213     270     264      10
     216     213     270     273      10     216     213     270     276      10
     213     219     222     225      44     213     270     264     267      10
     213     270     276     279       6     213     270    -276     279      11
     210     204     264     267       6     210     204    -264     267       7
     210     213     270     273       6     210     213    -270     273       7
     207     204     210     213       9     207     204     264     267      10
     207     204     264     270      10     207     204     264     282       6
     207     204    -264     282       7     204     210     213     216       9
     204     264     270     273      10     201     195     204     207      10
     201     195     204     210       6     201     195    -204     210       7
     201     195     204     264      10     198     195     204     207      10
     198     195     204     210       6     198     195    -204     210       7
     198     195     204     264      10     195     204     264     267      10
     192     195     204     207       6     192     195    -204     207       7
     183     192     195     198       9     183     192     195     201       9
     366     363     357     375       6     366     363    -357     375       7
     366     363     369     372       8     360     357     363     366      10
     360     357     363     369       6     360     357    -363     369       7
     360     357     375     378       9     357     363     369     372       6
     357     363    -369     372      11     345     339     336     348      40
     342     339     336     348      40     333     330     336     339      51
     333     330     336     348      51     330     336     339     342      40
     330     336     339     345      40     327     324     321     351      17
     327     324     330     333      18     327     324     330     336      18
     321     315     363     366      10     321     324     330     333      18
     318     315     321     324      14     318     315     321     351      14
     318     315     363     357      10     318     315     363     366      10
     318     315     363     369      10     315     321     324     327      17
     315     363     357     360      10     315     363     369     372       6
     315     363    -369     372      11     312     306     357     360       6
     312     306    -357     360       7     312     315     363     366       6
     312     315    -363     366       7     309     306     312     315       9
     309     306     357     360      10     309     306     357     363      10
     309     306     357     375       6     309     306    -357     375       7
     306     312     315     318       9     306     357     363     366      10
     303     297     306     309      10     303     297     306     312       6
     303     297    -306     312       7     303     297     306     357      10
     300     297     306     309      10     300     297     306     312       6
     300     297    -306     312       7     300     297     306     357      10
     297     306     357     360      10     294     297     306     309       6
     294     297    -306     309       7     285     294     297     300       9
     285     294     297     303       9     456     453     447     465       6
     456     453    -447     465       7     456     453     459     462       8
     450     447     453     456      10     450     447     453     459       6
     450     447    -453     459       7     450     447     465     468       9
     447     453     459     462       6     447     453    -459     462      11
     438     435     441     444      15     432     429     435     438      15
     426     423     429     432      16     426     423     429     435      16
     423     429     435     438      15     420     417     414     441      17
     420     417     423     426      18     420     417     423     429      18
     414     408     453     456      10     414     417     423     426      18
     414     441     435     438      15     411     408     414     417      14
     411     408     414     441      14     411     408     453     447      10
     411     408     453     456      10     411     408     453     459      10
     408     414     417     420      17     408     453     447     450      10
     408     453     459     462       6     408     453    -459     462      11
     405     399     447     450       6     405     399    -447     450       7
     405     408     453     456       6     405     408    -453     456       7
     402     399     405     408       9     402     399     447     450      10
     402     399     447     453      10     402     399     447     465       6
     402     399    -447     465       7     399     405     408     411       9
     399     447     453     456      10     396     390     399     402      10
     396     390     399     405       6     396     390    -399     405       7
     396     390     399     447      10     393     390     399     402      10
     393     390     399     405       6     393     390    -399     405       7
     393     390     399     447      10     390     399     447     450      10
     387     390     399     402       6     387     390    -399     402       7
     378     387     390     393       9     378     387     390     396       9
     546     543     537     555       6     546     543    -537     555       7
     546     543     549     552       8     543     537     555     558       6
     543     537    -555     558      11     540     537     543     546      10
     540     537     543     549       6     540     537    -543     549       7
     540     537     555     558       8     537     543     549     552       6
     537     543    -549     552      11     528     525     531     534      15
     522     519     525     528      15     516     513     519     522      16
     516     513     519     525      16     513     519     525     528      15
     510     507     504     531      17     510     507     513     516      18
     510     507     513     519      18     504     498     543     546      10
     504     507     513     516      18     504     531     525     528      15
     501     498     504     507      14     501     498     504     531      14
     501     498     543     537      10     501     498     543     546      10
     501     498     543     549      10     498     504     507     510      17
     498     543     537     540      10     498     543     549     552       6
     498     543    -549     552      11     495     489     537     540       6
     495     489    -537     540       7     495     498     543     546       6
     495     498    -543     546       7     492     489     495     498       9
     492     489     537     540      10     492     489     537     543      10
     492     489     537     555       6     492     489    -537     555       7
     489     495     498     501       9     489     537     543     546      10
     489     537     555     558       6     489     537    -555     558      11
     486     480     489     492      10     486     480     489     495       6
     486     480    -489     495       7     486     480     489     537      10
     483     480     489     492      10     483     480     489     495       6
     483     480    -489     495       7     483     480     489     537      10
     480     489     537     540      10     477     480     489     492       6
     477     480    -489     492       7     468     477     480     483       9
     468     477     480     486       9      45      57     -51     -54      76
      33      45     -39     -42      77      30      39     -33     -36      77
     147     156    -150    -153      77     135     141    -138    -144      76
     120     129    -123    -126      77     246     252    -249    -255      76
     234     246    -240    -243      76     219     228    -222    -225      77
     336     342    -339    -345      76     324     336    -330    -333      77
     321     330    -324    -327      77     429     441    -435    -438      76
     417     429    -423    -426      77     414     423    -417    -420      77
     519     531    -525    -528      76     507     519    -513    -516      77
     504     513    -507    -510      77
%FLAG DIHEDRALS_WITHOUT_HYDROGEN                                                
%FORMAT(10I8)                                                                   
      81      84      93      96       1      81      84     -93      96       2
      81      84     -93      96       3      75      69      63      81       4
      75      69     -63      81       5      69      63      81      84       9
      63      81      84      87      12      63      81      84      90      12
      63      81      84      93      13      63      81     -84      93      12
      57      30      24      69      14      48      45      51      57      15
      45      51      57      60      15      39      33      30      57      17
      39      45     -51      57      15      33      30      24      69      19
      33      30     -24      69      20      33      30     -24      69      21
      33      30     -24      69      22      33      30      57      51      23
      33      30      57      60      23      33      39      45      48      16
      33      39     -45      48      24      33      39     -45      51      16
      30      24      69      63      10      30      24      69      75      10
      30      33      39      45      18      30      57     -51      45      15
      24      21     -15      63      25      24      21     -15      63      26
      24      30      33      39      17      24      30      57      51      23
      24      30      57      60      23      24      69      63      81      10
      21      15     -63      69      10      21      15      63      81       4
      21      15     -63      81       5      21      24      30      33      27
      21      24     -30      33      28      21      24     -30      33      29
      21      24     -30      33      30      21      24      30      57      14
      21      24     -69      63      10      21      24      69      75       4
      21      24     -69      75       5      15      21      24      30      31
      15      21     -24      30      26      15      21     -24      69      25
      15      21     -24      69      26      15      63     -69      24      32
      15      63     -69      24      33      15      63     -69      24      34
      15      63      69      75      10      15      63      81      84       9
       6      15      21      24      25       6      15     -21      24      26
       6      15      63      69      32       6      15     -63      69      33
       6      15     -63      69      34       6      15      63      81      10
       3       6      15      21      10       3       6      15      63      35
       3       6     -15      63      36       3       6     -15      63      37
     180     183     192     195       1     180     183    -192     195       2
     180     183    -192     195       3     174     168     162     180       4
     174     168    -162     180       5     168     162     180     183       9
     162     180     183     186      12     162     180     183     189      12
     162     180     183     192      13     162     180    -183     192      12
     159     120     114     168      14     147     135     132     159      39
     147     150    -156     159      38     138     135     132     159      39
     138     135     147     150      41     135     132     159     156      42
     135     147    -150     156      38     132     135     147     150      41
     132     159    -156     150      43     129     123    -120     159      44
     129     132     135     138      39     129     132     135     147      39
     129     132     159     156      42     123     120     114     168      46
     123     120    -114     168      47     123     120    -114     168      48
     123     120    -114     168      49     123     120    -159     132      50
     123     120     159     156      50     123     129     132     135      51
     123     129    -132     159      51     120     114     168     162      10
     120     114     168     174      10     120     123    -129     132      45
     120     159    -132     129      42     120     159     132     135      42
     120     159     156     150      43     114     111    -105     162      25
     114     111    -105     162      26     114     120     123     129      44
     114     120     159     132      50     114     120     159     156      50
     114     168     162     180      10     111     105    -162     168      10
     111     105     162     180       4     111     105    -162     180       5
     111     114     120     123      52     111     114    -120     123      53
     111     114    -120     123      54     111     114    -120     123      55
     111     114     120     159      14     111     114    -168     162      10
     111     114     168     174       4     111     114    -168     174       5
     105     111     114     120      31     105     111    -114     120      26
     105     111    -114     168      25     105     111    -114     168      26
     105     162    -168     114      32     105     162    -168     114      33
     105     162    -168     114      34     105     162     168     174      10
     105     162     180     183       9      96     105     111     114      25
      96     105    -111     114      26      96     105     162     168      32
      96     105    -162     168      33      96     105    -162     168      34
      96     105     162     180      10      93      96     105     111      10
      93      96     105     162      35      93      96    -105     162      36
      93      96    -105     162      37      90      84      93      96      12
      87      84      93      96      12      84      93      96     105       9
     282     285     294     297       1     282     285    -294     297       2
     282     285    -294     297       3     276     270     264     282       4
     276     270    -264     282       5     270     264     282     285       9
     264     282     285     288      12     264     282     285     291      12
     264     282     285     294      13     264     282    -285     294      12
     261     219     213     270      14     249     246     258     261      41
     240     234     231     261      57     240     246    -258     261      41
     237     234     231     261      57     237     234     240     246      15
     234     231     261     258      42     234     240     246     249      56
     234     240    -246     258      56     231     234     240     246      15
     231     261    -258     246      43     228     222    -219     261      44
     228     231     234     237      57     228     231     234     240      57
     228     231     261     258      42     222     219     213     270      58
     222     219    -213     270      59     222     219    -213     270      60
     222     219    -213     270      61     222     219    -261     231      50
     222     219     261     258      50     222     228     231     234      51
     222     228    -231     261      51     219     213     270     264      10
     219     213     270     276      10     219     222    -228     231      45
     219     261    -231     228      42     219     261     231     234      42
     219     261     258     246      43     213     210    -204     264      25
     213     210    -204     264      26     213     219     222     228      44
     213     219     261     231      50     213     219     261     258      50
     213     270     264     282      10     210     204    -264     270      10
     210     204     264     282       4     210     204    -264     282       5
     210     213     219     222      62     210     213    -219     222      63
     210     213    -219     222      64     210     213    -219     222      65
     210     213     219     261      14     210     213    -270     264      10
     210     213     270     276       4     210     213    -270     276       5
     204     210     213     219      31     204     210    -213     219      26
     204     210    -213     270      25     204     210    -213     270      26
     204     264    -270     213      32     204     264    -270     213      33
     204     264    -270     213      34     204     264     270     276      10
     204     264     282     285       9     195     204     210     213      25
     195     204    -210     213      26     195     204     264     270      32
     195     204    -264     270      33     195     204    -264     270      34
     195     204     264     282      10     192     195     204     210      10
     192     195     204     264      35     192     195    -204     264      36
     192     195    -204     264      37     189     183     192     195      12
     186     183     192     195      12     183     192     195     204       9
     375     378     387     390       1     375     378    -387     390       2
     375     378    -387     390       3     369     363     357     375       4
     369     363    -357     375       5     363     357     375     378       9
     357     375     378     381      12     357     375     378     384      12
     357     375     378     387      13     357     375    -378     387      12
     351     321     315     363      14     339     336     348     351      41
     336     348     351     354      66     330     324     321     351      17
     330     336    -348     351      41     324     321     315     363      67
     324     321    -315     363      68     324     321    -315     363      69
     324     321    -315     363      70     324     321     351     348      23
     324     321     351     354      23     324     330     336     339      51
     324     330    -336     348      51     321     315     363     357      10
     321     315     363     369      10     321     324     330     336      18
     321     351    -348     336      66     315     312    -306     357      25
     315     312    -306     357      26     315     321     324     330      17
     315     321     351     348      23     315     321     351     354      23
     315     363     357     375      10     312     306    -357     363      10
     312     306     357     375       4     312     306    -357     375       5
     312     315     321     324      71     312     315    -321     324      72
     312     315    -321     324      73     312     315    -321     324      74
     312     315     321     351      14     312     315    -363     357      10
     312     315     363     369       4     312     315    -363     369       5
     306     312     315     321      31     306     312    -315     321      26
     306     312    -315     363      25     306     312    -315     363      26
     306     357    -363     315      32     306     357    -363     315      33
     306     357    -363     315      34     306     357     363     369      10
     306     357     375     378       9     297     306     312     315      25
     297     306    -312     315      26     297     306     357     363      32
     297     306    -357     363      33     297     306    -357     363      34
     297     306     357     375      10     294     297     306     312      10
     294     297     306     357      35     294     297    -306     357      36
     294     297    -306     357      37     291     285     294     297      12
     288     285     294     297      12     285     294     297     306       9
     465     468     477     480       1     465     468    -477     480       2
     465     468    -477     480       3     459     453     447     465       4
     459     453    -447     465       5     453     447     465     468       9
     447     465     468     471      12     447     465     468     474      12
     447     465     468     477      13     447     465    -468     477      12
     441     414     408     453      14     432     429     435     441      15
     429     435     441     444      15     423     417     414     441      17
     423     429    -435     441      15     417     414     408     453      19
     417     414    -408     453      20     417     414    -408     453      21
     417     414    -408     453      22     417     414     441     435      23
     417     414     441     444      23     417     423     429     432      16
     417     423    -429     432      24     417     423    -429     435      16
     414     408     453     447      10     414     408     453     459      10
     414     417     423     429      18     414     441    -435     429      15
     408     405    -399     447      25     408     405    -399     447      26
     408     414     417     423      17     408     414     441     435      23
     408     414     441     444      23     408     453     447     465      10
     405     399    -447     453      10     405     399     447     465       4
     405     399    -447     465       5     405     408     414     417      27
     405     408    -414     417      28     405     408    -414     417      29
     405     408    -414     417      30     405     408     414     441      14
     405     408    -453     447      10     405     408     453     459       4
     405     408    -453     459       5     399     405     408     414      31
     399     405    -408     414      26     399     405    -408     453      25
     399     405    -408     453      26     399     447    -453     408      32
     399     447    -453     408      33     399     447    -453     408      34
     399     447     453     459      10     399     447     465     468       9
     390     399     405     408      25     390     399    -405     408      26
     390     399     447     453      32     390     399    -447     453      33
     390     399    -447     453      34     390     399     447     465      10
     387     390     399     405      10     387     390     399     447      35
     387     390    -399     447      36     387     390    -399     447      37
     384     378     387     390      12     381     378     387     390      12
     378     387     390     399       9     549     543     537     555       4
     549     543    -537     555       5     531     504     498     543      14
     522     519     525     531      15     519     525     531     534      15
     513     507     504     531      17     513     519    -525     531      15
     507     504     498     543      19     507     504    -498     543      20
     507     504    -498     543      21     507     504    -498     543      22
     507     504     531     525      23     507     504     531     534      23
     507     513     519     522      16     507     513    -519     522      24
     507     513    -519     525      16     504     498     543     537      10
     504     498     543     549      10     504     507     513     519      18
     504     531    -525     519      15     498     495    -489     537      25
     498     495    -489     537      26     498     504     507     513      17
     498     504     531     525      23     498     504     531     534      23
     498     543     537     555      10     495     489    -537     543      10
     495     489     537     555       4     495     489    -537     555       5
     495     498     504     507      27     495     498    -504     507      28
     495     498    -504     507      29     495     498    -504     507      30
     495     498     504     531      14     495     498    -543     537      10
     495     498     543     549       4     495     498    -543     549       5
     489     495     498     504      31     489     495    -498     504      26
     489     495    -498     543      25     489     495    -498     543      26
     489     537    -543     498      32     489     537    -543     498      33
     489     537    -543     498      34     489     537     543     549      10
     480     489     495     498      25     480     489    -495     498      26
     480     489     537     543      32     480     489    -537     543      33
     480     489    -537     543      34     480     489     537     555      10
     477     480     489     495      10     477     480     489     537      35
     477     480    -489     537      36     477     480    -489     537      37
     474     468     477     480      12     471     468     477     480      12
     468     477     480     489       9      30      51     -57     -60      75
      39      51     -45     -48      75      57      24     -30     -33      76
     120     132    -159    -156      78     132     138    -135    -147      77
     129     135    -132    -159      78     159     114    -120    -123      76
     231     219    -261    -258      78     249     240    -246    -258      77
     231     240    -234    -237      75     228     234    -231    -261      78
     261     213    -219    -222      76     321     348    -351    -354      75
     330     339    -336    -348      77     351     315    -321    -324      76
     414     435    -441    -444      75     423     435    -429    -432      75
     441     408    -414    -417      76     504     525    -531    -534      75
     513     525    -519    -522      75     531     498    -504    -507      76
%FLAG EXCLUDED_ATOMS_LIST                                                       
%FORMAT(10I8)                                                                   
       2       3       4       5       6       3       4       5       6       7
       8      22       4       5       6       7       8       9      22      23
      24      28       5       6       7       8      22       6       7       8
      22       7       8       9      10      11      22      23      24      25
      26      28      29       8       9      22      23      24      28       9
      10      11      12      20      22      23      24      25      26      28
      10      11      12      13      14      18      20      21      22      23
      24      25      26      27      28      11      12      20      22      24
      25      26      12      13      14      15      16      18      19      20
      21      22      24      25      26      13      14      15      16      17
      18      20      21      24      14      15      16      20      15      16
      17      18      19      20      16      17      18      17      18      19
      20      21      18      19      20      19      20      21      20      21
      21      24       0      23      24      25      26      27      28      29
      30      31      32      24      25      26      28      29      25      26
      27      28      29      26      27      28      27      28       0      29
      30      31      32      33      30      31      32      33      34      35
      36      31      32      33      32      33      33      34      35      36
      37      38      55      34      35      36      37      38      39      55
      56      57      61      35      36      37      38      55      36      37
      38      55      37      38      39      40      41      55      56      57
      58      59      61      62      38      39      55      56      57      61
      39      40      41      42      54      55      56      57      58      59
      61      40      41      42      43      44      45      53      54      55
      56      57      58      59      60      61      41      42      54      55
      57      58      59      42      43      44      45      46      51      53
      54      55      57      58      59      43      44      45      46      53
      54      57      44      45      54      45      46      47      50      53
      54      46      47      48      49      50      51      53      54      47
      48      49      50      51      52      53      54      48      49      50
      51      54      49      50      50      51      52      53      54      52
      53      54      53      54      54      57      56      57      58      59
      60      61      62      63      64      65      57      58      59      61
      62      58      59      60      61      62      59      60      61      60
      61       0      62      63      64      65      66      63      64      65
      66      67      68      69      64      65      66      65      66      66
      67      68      69      70      71      89      67      68      69      70
      71      72      89      90      91      95      68      69      70      71
      89      69      70      71      89      70      71      72      73      74
      89      90      91      92      93      95      96      71      72      89
      90      91      95      72      73      74      75      88      89      90
      91      92      93      95      73      74      75      76      77      78
      87      88      89      90      91      92      93      94      95      74
      75      88      89      91      92      93      75      76      77      78
      79      83      87      88      89      91      92      93      76      77
      78      79      87      88      91      77      78      88      78      79
      80      81      87      88      79      80      81      82      83      87
      88      80      81      82      83      84      87      88      81      82
      83      88      82      83      84      85      86      87      88      83
      84      87      84      85      86      87      88      85      86      87
      88      86      87      87      88      91      90      91      92      93
      94      95      96      97      98      99      91      92      93      95
      96      92      93      94      95      96      93      94      95      94
      95       0      96      97      98      99     100      97      98      99
     100     101     102     103      98      99     100      99     100     100
     101     102     103     104     105     120     101     102     103     104
     105     106     120     121     122     126     102     103     104     105
     120     103     104     105     120     104     105     106     107     108
     120     121     122     123     124     126     127     105     106     120
     121     122     126     106     107     108     109     118     120     121
     122     123     124     126     107     108     109     110     111     117
     118     119     120     121     122     123     124     125     126     108
     109     118     120     122     123     124     109     110     111     112
     113     117     118     119     120     122     123     124     110     111
     112     113     114     117     118     119     122     111     112     113
     118     112     113     114     115     116     117     118     113     114
     117     114     115     116     117     118     119     115     116     117
     118     116     117     117     118     119     119     122       0     121
     122     123     124     125     126     127     128     129     130     122
     123     124     126     127     123     124     125     126     127     124
     125     126     125     126       0     127     128     129     130     131
     128     129     130     131     132     133     134     129     130     131
     130     131     131     132     133     134     135     136     150     132
     133     134     135     136     137     150     151     152     156     133
     134     135     136     150     134     135     136     150     135     136
     137     138     139     150     151     152     153     154     156     157
     136     137     150     151     152     156     137     138     139     140
     148     150     151     152     153     154     156     138     139     140
     141     142     146     148     149     150     151     152     153     154
     155     156     139     140     148     150     152     153     154     140
     141     142     143     144     146     147     148     149     150     152
     153     154     141     142     143     144     145     146     148     149
     152     142     143     144     148     143     144     145     146     147
     148     144     145     146     145     146     147     148     149     146
     147     148     147     148     149     148     149     149     152       0
     151     152     153     154     155     156     157     158     159     160
     152     153     154     156     157     153     154     155     156     157
     154     155     156     155     156       0     157     158     159     160
     161     158     159     160     161     162     163     164     159     160
     161     160     161     161     162     163     164     165     166     180
     162     163     164     165     166     167     180     181     182     186
     163     164     165     166     180     164     165     166     180     165
     166     167     168     169     180     181     182     183     184     186
     187     166     167     180     181     182     186     167     168     169
     170     178     180     181     182     183     184     186     168     169
     170     171     172     176     178     179     180     181     182     183
     184     185     186     169     170     178     180     182     183     184
     170     171     172     173     174     176     177     178     179     180
     182     183     184     171     172     173     174     175     176     178
     179     182     172     173     174     178     173     174     175     176
     177     178     174     175     176     175     176     177     178     179
     176     177     178     177     178     179     178     179     179     182
       0     181     182     183     184     185     186     187     182     183
     184     186     187     183     184     185     186     187     184     185
     186     185     186       0     187       0
%FLAG HBOND_ACOEF                                                               
%FORMAT(5E16.8)                                                                 

%FLAG HBOND_BCOEF                                                               
%FORMAT(5E16.8)                                                                 

%FLAG HBCUT                                                                     
%FORMAT(5E16.8)                                                                 

%FLAG AMBER_ATOM_TYPE                                                           
%FORMAT(20a4)                                                                   
HO  OH  CI  H1  H1  CT  H1  OS  CT  H2  N*  Q4  H4  CM  HA  C   O   NA  H   C   
O   CT  H1  CT  H1  OH  HO  OS  P   O2  O2  OS  CI  H1  H1  CT  H1  OS  CT  H2  
N*  Q1  H5  NB  CB  CA  N2  H   H   NC  CQ  H5  NC  CB  CT  H1  CT  H1  OH  HO  
OS  P   O2  O2  OS  CI  H1  H1  CT  H1  OS  CT  H2  N*  Q2  H5  NB  CB  C   O   
NA  H   CA  N2  H   H   NC  CB  CT  H1  CT  H1  OH  HO  OS  P   O2  O2  OS  CI  
H1  H1  CT  H1  OS  CT  H2  N*  Q3  H4  CM  HA  CA  N2  H   H   NC  C   O   CT  
H1  CT  H1  OH  HO  OS  P   O2  O2  OS  CI  H1  H1  CT  H1  OS  CT  H2  N*  Q4  
H4  CM  HA  C   O   NA  H   C   O   CT  H1  CT  H1  OH  HO  OS  P   O2  O2  OS  
CI  H1  H1  CT  H1  OS  CT  H2  N*  Q4  H4  CM  HA  C   O   NA  H   C   O   CT  
H1  CT  H1  OH  HO  OH  HO  
%FLAG TREE_CHAIN_CLASSIFICATION                                                 
%FORMAT(20a4)                                                                   
M   M   M   E   E   M   E   S   3   E   B   S   E   S   E   B   E   B   E   B   
E   M   E   B   E   S   E   M   M   E   E   M   M   E   E   M   E   S   3   E   
B   S   E   E   B   B   B   E   E   S   S   E   E   B   M   E   B   E   S   E   
M   M   E   E   M   M   E   E   M   E   S   3   E   B   S   E   E   B   B   E   
B   E   S   B   E   E   E   B   M   E   B   E   S   E   M   M   E   E   M   M   
E   E   M   E   S   3   E   B   S   E   S   E   B   B   E   E   S   B   E   M   
E   B   E   S   E   M   M   E   E   M   M   E   E   M   E   S   3   E   B   S   
E   S   E   B   E   B   E   B   E   M   E   B   E   S   E   M   M   E   E   M   
M   E   E   M   E   S   3   E   B   S   E   S   E   B   E   B   E   B   E   M   
E   B   E   S   E   M   M   
%FLAG JOIN_ARRAY                                                                
%FORMAT(10I8)                                                                   
       0       0       0       0       0       0       0       0       0       0
       0       0       0       0       0       0       0       0       0       0
       0       0       0       0       0       0       0       0       0       0
       0       0       0       0       0       0       0       0       0       0
       0       0       0       0       0       0       0       0       0       0
       0       0       0       0       0       0       0       0       0       0
       0       0       0       0       0       0       0       0       0       0
       0       0       0       0       0       0       0       0       0       0
       0       0       0       0       0       0       0       0       0       0
       0       0       0       0       0       0       0       0       0       0
       0       0       0       0       0       0       0       0       0       0
       0       0       0       0       0       0       0       0       0       0
       0       0       0       0       0       0       0       0       0       0
       0       0       0       0       0       0       0       0       0       0
       0       0       0       0       0       0       0       0       0       0
       0       0       0       0       0       0       0       0       0       0
       0       0       0       0       0       0       0       0       0       0
       0       0       0       0       0       0       0       0       0       0
       0       0       0       0       0       0       0
%FLAG IROTAT                                                                    
%FORMAT(10I8)                                                                   
       0       0       0       0       0       0       0       0       0       0
       0       0       0       0       0       0       0       0       0       0
       0       0       0       0       0       0       0       0       0       0
       0       0       0       0       0       0       0       0       0       0
       0       0       0       0       0       0       0       0       0       0
       0       0       0       0       0       0       0       0       0       0
       0       0       0       0       0       0       0       0       0       0
       0       0       0       0       0       0       0       0       0       0
       0       0       0       0       0       0       0       0       0       0
       0       0       0       0       0       0       0       0       0       0
       0       0       0       0       0       0       0       0       0       0
       0       0       0       0       0       0       0       0       0       0
       0       0       0       0       0       0       0       0       0       0
       0       0       0       0       0       0       0       0       0       0
       0       0       0       0       0       0       0       0       0       0
       0       0       0       0       0       0       0       0       0       0
       0       0       0       0       0       0       0       0       0       0
       0       0       0       0       0       0       0       0       0       0
       0       0       0       0       0       0       0
%FLAG RADIUS_SET                                                                
%FORMAT(1a80)                                                                   
modified Bondi radii (mbondi)                                                   
%FLAG RADII                                                                     
%FORMAT(5E16.8)                                                                 
  8.00000000E-01  1.50000000E+00  1.70000000E+00  1.30000000E+00  1.30000000E+00
  1.70000000E+00  1.30000000E+00  1.50000000E+00  1.70000000E+00  1.30000000E+00
  1.55000000E+00  1.70000000E+00  1.30000000E+00  1.70000000E+00  1.30000000E+00
  1.70000000E+00  1.50000000E+00  1.55000000E+00  1.30000000E+00  1.70000000E+00
  1.50000000E+00  1.70000000E+00  1.30000000E+00  1.70000000E+00  1.30000000E+00
  1.50000000E+00  8.00000000E-01  1.50000000E+00  1.85000000E+00  1.50000000E+00
  1.50000000E+00  1.50000000E+00  1.70000000E+00  1.30000000E+00  1.30000000E+00
  1.70000000E+00  1.30000000E+00  1.50000000E+00  1.70000000E+00  1.30000000E+00
  1.55000000E+00  1.70000000E+00  1.30000000E+00  1.55000000E+00  1.70000000E+00
  1.70000000E+00  1.55000000E+00  1.30000000E+00  1.30000000E+00  1.55000000E+00
  1.70000000E+00  1.30000000E+00  1.55000000E+00  1.70000000E+00  1.70000000E+00
  1.30000000E+00  1.70000000E+00  1.30000000E+00  1.50000000E+00  8.00000000E-01
  1.50000000E+00  1.85000000E+00  1.50000000E+00  1.50000000E+00  1.50000000E+00
  1.70000000E+00  1.30000000E+00  1.30000000E+00  1.70000000E+00  1.30000000E+00
  1.50000000E+00  1.70000000E+00  1.30000000E+00  1.55000000E+00  1.70000000E+00
  1.30000000E+00  1.55000000E+00  1.70000000E+00  1.70000000E+00  1.50000000E+00
  1.55000000E+00  1.30000000E+00  1.70000000E+00  1.55000000E+00  1.30000000E+00
  1.30000000E+00  1.55000000E+00  1.70000000E+00  1.70000000E+00  1.30000000E+00
  1.70000000E+00  1.30000000E+00  1.50000000E+00  8.00000000E-01  1.50000000E+00
  1.85000000E+00  1.50000000E+00  1.50000000E+00  1.50000000E+00  1.70000000E+00
  1.30000000E+00  1.30000000E+00  1.70000000E+00  1.30000000E+00  1.50000000E+00
  1.70000000E+00  1.30000000E+00  1.55000000E+00  1.70000000E+00  1.30000000E+00
  1.70000000E+00  1.30000000E+00  1.70000000E+00  1.55000000E+00  1.30000000E+00
  1.30000000E+00  1.55000000E+00  1.70000000E+00  1.50000000E+00  1.70000000E+00
  1.30000000E+00  1.70000000E+00  1.30000000E+00  1.50000000E+00  8.00000000E-01
  1.50000000E+00  1.85000000E+00  1.50000000E+00  1.50000000E+00  1.50000000E+00
  1.70000000E+00  1.30000000E+00  1.30000000E+00  1.70000000E+00  1.30000000E+00
  1.50000000E+00  1.70000000E+00  1.30000000E+00  1.55000000E+00  1.70000000E+00
  1.30000000E+00  1.70000000E+00  1.30000000E+00  1.70000000E+00  1.50000000E+00
  1.55000000E+00  1.30000000E+00  1.70000000E+00  1.50000000E+00  1.70000000E+00
  1.30000000E+00  1.70000000E+00  1.30000000E+00  1.50000000E+00  8.00000000E-01
  1.50000000E+00  1.85000000E+00  1.50000000E+00  1.50000000E+00  1.50000000E+00
  1.70000000E+00  1.30000000E+00  1.30000000E+00  1.70000000E+00  1.30000000E+00
  1.50000000E+00  1.70000000E+00  1.30000000E+00  1.55000000E+00  1.70000000E+00
  1.30000000E+00  1.70000000E+00  1.30000000E+00  1.70000000E+00  1.50000000E+00
  1.55000000E+00  1.30000000E+00  1.70000000E+00  1.50000000E+00  1.70000000E+00
  1.30000000E+00  1.70000000E+00  1.30000000E+00  1.50000000E+00  8.00000000E-01
  1.50000000E+00  8.00000000E-01
%FLAG SCREEN                                                                    
%FORMAT(5E16.8)                                                                 
  8.50000000E-01  8.50000000E-01  7.20000000E-01  8.50000000E-01  8.50000000E-01
  7.20000000E-01  8.50000000E-01  8.50000000E-01  7.20000000E-01  8.50000000E-01
  7.90000000E-01  7.20000000E-01  8.50000000E-01  7.20000000E-01  8.50000000E-01
  7.20000000E-01  8.50000000E-01  7.90000000E-01  8.50000000E-01  7.20000000E-01
  8.50000000E-01  7.20000000E-01  8.50000000E-01  7.20000000E-01  8.50000000E-01
  8.50000000E-01  8.50000000E-01  8.50000000E-01  8.60000000E-01  8.50000000E-01
  8.50000000E-01  8.50000000E-01  7.20000000E-01  8.50000000E-01  8.50000000E-01
  7.20000000E-01  8.50000000E-01  8.50000000E-01  7.20000000E-01  8.50000000E-01
  7.90000000E-01  7.20000000E-01  8.50000000E-01  7.90000000E-01  7.20000000E-01
  7.20000000E-01  7.90000000E-01  8.50000000E-01  8.50000000E-01  7.90000000E-01
  7.20000000E-01  8.50000000E-01  7.90000000E-01  7.20000000E-01  7.20000000E-01
  8.50000000E-01  7.20000000E-01  8.50000000E-01  8.50000000E-01  8.50000000E-01
  8.50000000E-01  8.60000000E-01  8.50000000E-01  8.50000000E-01  8.50000000E-01
  7.20000000E-01  8.50000000E-01  8.50000000E-01  7.20000000E-01  8.50000000E-01
  8.50000000E-01  7.20000000E-01  8.50000000E-01  7.90000000E-01  7.20000000E-01
  8.50000000E-01  7.90000000E-01  7.20000000E-01  7.20000000E-01  8.50000000E-01
  7.90000000E-01  8.50000000E-01  7.20000000E-01  7.90000000E-01  8.50000000E-01
  8.50000000E-01  7.90000000E-01  7.20000000E-01  7.20000000E-01  8.50000000E-01
  7.20000000E-01  8.50000000E-01  8.50000000E-01  8.50000000E-01  8.50000000E-01
  8.60000000E-01  8.50000000E-01  8.50000000E-01  8.50000000E-01  7.20000000E-01
  8.50000000E-01  8.50000000E-01  7.20000000E-01  8.50000000E-01  8.50000000E-01
  7.20000000E-01  8.50000000E-01  7.90000000E-01  7.20000000E-01  8.50000000E-01
  7.20000000E-01  8.50000000E-01  7.20000000E-01  7.90000000E-01  8.50000000E-01
  8.50000000E-01  7.90000000E-01  7.20000000E-01  8.50000000E-01  7.20000000E-01
  8.50000000E-01  7.20000000E-01  8.50000000E-01  8.50000000E-01  8.50000000E-01
  8.50000000E-01  8.60000000E-01  8.50000000E-01  8.50000000E-01  8.50000000E-01
  7.20000000E-01  8.50000000E-01  8.50000000E-01  7.20000000E-01  8.50000000E-01
  8.50000000E-01  7.20000000E-01  8.50000000E-01  7.90000000E-01  7.20000000E-01
  8.50000000E-01  7.20000000E-01  8.50000000E-01  7.20000000E-01  8.50000000E-01
  7.90000000E-01  8.50000000E-01  7.20000000E-01  8.50000000E-01  7.20000000E-01
  8.50000000E-01  7.20000000E-01  8.50000000E-01  8.50000000E-01  8.50000000E-01
  8.50000000E-01  8.60000000E-01  8.50000000E-01  8.50000000E-01  8.50000000E-01
  7.20000000E-01  8.50000000E-01  8.50000000E-01  7.20000000E-01  8.50000000E-01
  8.50000000E-01  7.20000000E-01  8.50000000E-01  7.90000000E-01  7.20000000E-01
  8.50000000E-01  7.20000000E-01  8.50000000E-01  7.20000000E-01  8.50000000E-01
  7.90000000E-01  8.50000000E-01  7.20000000E-01  8.50000000E-01  7.20000000E-01
  8.50000000E-01  7.20000000E-01  8.50000000E-01  8.50000000E-01  8.50000000E-01
  8.50000000E-01  8.50000000E-01
%FLAG IPOL                                                                      
%FORMAT(1I8)                                                                    
       0
