U5
   187
   2.2724431   0.6742298   0.7681299   2.3596251   0.9667047   1.6796402
   1.0889426   1.3495204   2.1567140   0.4942210   0.4765531   2.4269261
   0.5716279   1.9008577   1.3721215   1.2701745   2.2622952   3.3667509
   0.4844196   3.0172905   3.3960186   1.2657318   1.4920065   4.5500789
   2.5374408   0.8838264   4.6100227   2.8099263   0.6829372   5.6434897
   2.5474685  -0.3818371   3.8603893   3.1757404  -0.4795294   2.6519990
   3.6118465   0.4062149   2.2135691   3.2737822  -1.6571088   2.0012683
   3.7790911  -1.6918275   1.0477549   2.7268670  -2.8666778   2.5734686
   2.8025343  -3.9864678   2.0716861   2.1045083  -2.6824713   3.8017893
   1.7001825  -3.4988244   4.2396158   1.9677909  -1.4768862   4.4706074
   1.4180352  -1.4015098   5.5673691   2.6559343   2.9036612   3.3554887
   2.9905980   3.1410015   2.3472468   3.5412175   1.8337249   3.9800937
   4.1120889   1.3103480   3.2102391   4.4000475   2.3844383   4.9508332
   4.8672644   1.6641890   5.3810250   2.5903460   4.0590061   4.1662736
   3.9209797   4.8680192   4.5986372   4.9472585   3.8792964   5.0016076
   3.5145588   5.9237765   5.5527959   4.4134763   5.5985010   3.2440227
   3.7308266   5.4077370   2.0241502   2.6967072   5.7411234   2.1096228
   3.7591165   4.3462012   1.7729006   4.4313939   6.1848660   0.9121199
   4.5983625   5.5355768   0.0553508   3.6672588   7.3179625   0.5403702
   3.9591383   8.3505105   1.4650504   4.0238992   9.3027571   0.9363574
   2.9158550   8.4654208   2.5028110   3.0014898   8.1333371   3.8280164
   3.8657225   7.6389700   4.2473536   1.9581454   8.4717464   4.5307693
   1.1198244   9.0785796   3.6044404  -0.1439458   9.6737180   3.7229450
  -0.8112554   9.7620225   4.8833505  -1.7225752  10.1949415   4.9075361
  -0.3996105   9.4072476   5.7343348  -0.6967882  10.1782440   2.6115780
  -0.0351417  10.1000747   1.4633779  -0.5371054  10.5273739   0.6066517
   1.1577417   9.5760206   1.2229630   1.6889404   9.0709870   2.3591073
   5.7504407   6.7571701   1.4110145   6.2518467   6.0731828   2.0958690
   5.3080268   8.0331269   2.1082064   5.1786249   7.8457286   3.1720397
   6.2596014   9.0514042   1.9023595   5.9957930   9.8141835   2.4218577
   6.5729231   7.0532413   0.3000665   7.8914899   7.9824004   0.4464830
   7.5043148   9.2230263   1.1559124   8.5290173   8.0719254  -0.8872458
   8.8659223   7.1331515   1.4184600   8.3944539   5.9854880   2.0938616
   8.1090764   5.2170548   1.3769643   7.5252805   6.2594236   2.6924526
   9.4750624   5.4486122   3.0291477   9.0651664   5.3110110   4.0278055
  10.0041593   4.2335030   2.5364177  10.9480927   4.5512228   1.5291848
  11.7832326   3.8501127   1.5602483  10.3211838   4.5082844   0.1943940
   9.8469064   5.5523371  -0.5575929   9.7856400   6.5669562  -0.1880135
   9.4931828   5.2160564  -1.7658047   9.7638157   3.8506535  -1.8271100
   9.6075033   2.9409006  -2.9070897   9.1747570   3.1671025  -4.0366818
  10.0347871   1.6672053  -2.5646448   9.9699552   0.9555553  -3.2793808
  10.5413714   1.3035983  -1.3312497  10.9020348   0.0255507  -1.1816807
  10.8079720  -0.6222596  -1.9518017  11.2736147  -0.2950537  -0.2987106
  10.6813402   2.1605651  -0.3119612  10.2731964   3.4098585  -0.6333373
  10.6678945   6.3916291   3.0569758  10.3578409   7.4365427   3.0104609
  11.4307201   5.9755305   1.8095182  11.1582356   6.6233227   0.9781456
  12.8147563   6.0463456   2.0582576  13.2741877   5.9699561   1.2192832
  11.4170078   6.1295061   4.2234073  12.8849168   6.7685783   4.4424444
  13.6784563   6.5337762   3.2144042  13.3963963   6.2932234   5.7487931
  12.5928624   8.3523290   4.5587705  11.3153261   8.8715901   4.2606669
  10.5761630   8.4712673   4.9540453  11.0468520   8.5945371   3.2415308
  11.3424910  10.3941843   4.3526448  10.9329158  10.8268061   3.4420635
  10.6096892  10.8321993   5.4764191  11.4463185  10.6578006   6.6005272
  11.2401107  11.4326491   7.3392522  11.2296040   9.3442893   7.2236140
  12.2140487   8.4021153   7.2064959  13.1289368   8.6111749   6.6731313
  12.0699597   7.2321242   7.8642553  12.8665366   6.5059462   7.8369499
  10.8458091   7.0443718   8.5816314  10.6522451   5.9228207   9.2897042
   9.7934121   5.8000029   9.8101210  11.3689857   5.2138336   9.3141031
   9.8857452   7.9776867   8.5839497  10.0418283   9.1436710   7.9066000
   9.1745108  10.0129193   7.9083415  12.7627435  10.8867293   4.6046874
  13.4956218  10.2706766   4.0871079  12.8934047  10.7663508   6.1147521
  13.4523949   9.8664184   6.3704931  13.5371815  11.9033582   6.6397306
  13.7319568  11.7368343   7.5656876  12.8457050  12.2337580   4.1847344
  14.1438443  13.1493867   4.4808831  14.4680866  13.0424049   5.9208282
  13.9004115  14.4805336   3.8809360  15.3274986  12.4398275   3.6413765
  15.1104676  11.2145710   2.9760117  14.3308359  11.3371074   2.2227288
  14.7931647  10.4705110   3.7099804  16.3993938  10.7259803   2.3116048
  16.6057040   9.7027475   2.6238643  16.2739668  10.8000615   0.9056223
  16.5234555  12.1459601   0.5538528  17.0335520  12.1787559  -0.4078546
  15.2770376  12.9264181   0.4469987  14.9051897  13.7771891   1.4465598
  15.4963628  13.8153265   2.3501570  13.8252889  14.5758081   1.3277512
  13.5640676  15.2308436   2.1435516  13.0229749  14.5682348   0.1263173
  12.0415760  15.2792588  -0.0786704  13.4626031  13.6744138  -0.8405916
  12.9328520  13.6277372  -1.7001789  14.5593960  12.8340224  -0.7319596
  14.8867084  12.0752361  -1.6419501  17.5769580  11.6398733   2.6381021
  17.5201686  12.0126924   3.6593568  17.4187808  12.7639528   1.6238001
  16.9188535  13.6173693   2.0846713  18.6663005  13.1538979   1.0999950
  18.5247584  13.9244673   0.5442433  18.7712547  10.9211127   2.4237837
  20.2071399  11.6524260   2.4695520  20.1447438  12.8544700   1.6076746
  21.2493590  10.6316036   2.2206957  20.3355097  12.1298692   4.0062613
  19.2708346  11.9486043   4.9143533  19.0463339  10.8889144   5.0273462
  18.3920521  12.4671139   4.5317395  19.6530157  12.5478273   6.2648873
  18.8580603  13.1993918   6.6212892  19.9199254  11.5279623   7.2052123
  21.2394491  11.0824825   6.9631394  21.7189969  10.8337608   7.9078632
  21.2472016   9.8882379   6.0987473  21.6179620   9.9838056   4.7898241
  21.8907601  10.9510153   4.3938379  21.6468363   8.9030525   3.9837823
  21.9458795   9.0226138   2.9539590  21.2903234   7.5944404   4.4829623
  21.2964960   6.5549749   3.8261667  20.9416693   7.5789133   5.8269560
  20.6876026   6.6862699   6.2260685  20.8955506   8.6788361   6.6687443
  20.5721622   8.5805038   7.8506780  20.9676007  13.3056906   6.1358615
  21.0455565  13.8096136   5.1720538  22.0099002  12.2092975   6.2784106
  22.3528868  11.8929528   5.2934390  23.0915290  12.6741455   7.0565740
  23.7721955  11.9964019   7.0729005  21.0966874  14.2153476   7.2054156
  22.0133475  14.4944120   7.2544015
