default_name
  4828
  15.5608533  15.2346767  17.2939676  15.5606096  16.3246767  17.2939677
  15.0467888  16.6884120  18.1837897  15.0467886  16.6884126  16.4041457
  16.9876096  16.8756767  17.2939677  17.9516096  16.1116767  17.2939677
  17.1156096  18.2046767  17.2939677  16.2914323  18.7884842  17.2940368
  18.4136096  18.8486767  17.2939677  18.9677734  18.5499879  18.1837916
  19.2216096  18.4556767  16.0619677  18.6837383  18.7564974  15.1629118
  20.1909054  18.9535325  16.0885272  19.3685879  17.3756731  16.0525409
  18.2736096  20.3636767  17.2939677  17.1616096  20.8876767  17.2939677
  19.4066096  21.0696767  17.2939677  20.2958925  20.5908498  17.2938080
  19.4066096  22.5186767  17.2939677  18.8927445  22.8825181  16.4042141
  18.6956096  23.0676767  18.5259677  19.2041451  22.7193770  19.4249554
  18.7108958  24.1572495  18.4995542  17.6627792  22.7194356  18.5353905
  20.8266096  23.0666767  17.2939677  21.7896096  22.3026767  17.2939677
  20.9546096  24.3956767  17.2939677  20.1304323  24.9794842  17.2939665
  22.2526096  25.0396767  17.2939677  23.0352117  24.2809708  17.2939677
  22.3502157  25.6616007  16.4041451  22.3502153  25.6616004  18.1837901
  30.2750113  30.3253833  22.9704083  30.0300113  30.8133833  22.2904083
  31.1380113  30.2523833  22.8704083  30.3660113  30.3863833  22.8554083
  30.0840113  37.2413833  27.6414083  29.5600113  37.8373833  28.0044083
  30.4810113  36.8733833  28.3254083  30.0650113  37.2753833  27.7964083
  19.6960113  35.1733833  19.6044083  18.9180113  35.3353833  19.2444083
  19.7350113  34.3023833  19.6264083  19.5870113  35.0683833  19.5544083
  32.7550113  38.3083833  24.3174083  32.8350113  38.3123833  23.4484083
  32.1710113  37.6763833  24.4664083  32.6800113  38.2153833  24.2114083
  26.7440113  31.4123833  22.1254083  26.6740113  32.0893833  21.5794083
  27.4850113  31.0243833  21.8764083  26.8430113  31.4553833  22.0074083
  21.3390113  38.6373833  23.5544083  20.8770113  38.2453833  22.9274083
  22.0390113  38.1243833  23.6464083  21.3740113  38.5043833  23.4754083
  25.8470113  34.2473833  28.9014083  26.5250113  34.2653833  28.3524083
  25.8020113  33.4113833  29.1464083  25.9400113  34.1263833  28.8564083
  23.3400113  36.7373833  23.5774083  24.1570113  36.5503833  23.8204083
  22.8630113  36.1233833  23.9734083  23.3900113  36.6193833  23.6724083
  23.9370113  31.8313833  22.8434083  23.6410113  32.3323833  22.1934083
  24.8040113  31.9093833  22.7864083  24.0210113  31.9173833  22.7394083
  26.9160113  30.9733833  25.0664083  26.9890113  31.8333833  25.1954083
  26.8780113  30.8983833  24.1984083  26.9210113  31.0893833  24.9574083
  31.5890113  33.8993833  17.3654083  31.1390113  34.5803833  17.6724083
  31.7030113  33.3953833  18.0684083  31.5400113  33.9253833  17.5144083
  19.7950113  36.3983833  26.5674083  19.5390113  37.2293833  26.4924083
  19.1310113  36.0153833  26.9844083  19.6590113  36.4643833  26.6184083
  22.8240113  31.2153833  27.0584083  22.3030113  30.5873833  26.7504083
  23.4150113  30.7783833  27.5294083  22.8350113  31.0573833  27.0824083
  29.1060113  35.5143833  23.2814083  29.3930113  35.2823833  22.4914083
  29.8380113  35.5933833  23.7504083  29.2560113  35.4913833  23.2344083
  29.8280113  35.8533833  18.4024083  30.1090113  36.6413833  18.6514083
  29.0520113  36.0183833  18.0394083  29.7550113  35.9943833  18.3854083
  32.1940113  31.9203833  19.2724083  32.7340113  31.2383833  19.3484083
  32.2560113  32.3183833  20.0464083  32.2830113  31.8783833  19.3984083
  20.1480113  33.0883833  21.8414083  20.0340113  32.2243833  21.8724083
  19.6730113  33.3823833  22.5114083  20.0610113  33.0043833  21.9444083
  29.4520113  34.2963833  20.5864083  28.9440113  33.6343833  20.3324083
  29.5040113  34.8003833  19.8764083  29.3850113  34.2733833  20.4444083
  29.4520113  31.2373833  20.4774083  28.9970113  30.8353833  19.8514083
  30.2250113  31.3923833  20.1024083  29.4990113  31.2013833  20.3294083
  28.0500113  33.6043833  24.9994083  28.1240113  34.1723833  24.3414083
  28.1710113  34.0963833  25.7094083  28.0780113  33.7613833  25.0074083
  22.6580113  29.4273833  23.3474083  23.1940113  30.1153833  23.3374083
  22.6610113  29.1533833  22.5194083  22.7370113  29.4883833  23.2234083
  31.8420113  33.7743833  30.8874083  31.7470113  34.0933833  31.6934083
  31.2490113  33.1353833  30.8494083  31.7400113  33.7263833  31.0014083
  33.0980113  29.7183833  23.7234083  33.1470113  29.4003833  24.5344083
  33.4210113  29.0743833  23.2304083  33.1530113  29.5763833  23.7704083
  35.5620113  33.9543833  32.0314083  36.3340113  33.7293833  32.3684083
  35.0870113  34.1713833  32.7314083  35.6060113  33.9533833  32.1844083
  23.1060113  33.2373833  25.0014083  23.3780113  32.8073833  24.2934083
  22.9300113  32.6013833  25.5724083  23.1200113  33.0803833  24.9814083
  21.2470113  34.3393833  28.0834083  22.0900113  34.5593833  28.0404083
  20.8580113  34.9123833  27.5524083  21.3140113  34.4563833  27.9984083
  33.6890113  37.4693833  18.8044083  33.4690113  38.2003833  18.3824083
  33.2410113  37.5203833  19.5514083  33.5900113  37.5843833  18.8524083
  19.5200113  38.9983833  21.2084083  19.3350113  38.1593833  21.3604083
  20.1790113  38.9623833  20.6384083  19.5900113  38.8693833  21.1464083
  32.3320113  34.1763833  25.6094083  32.6760113  34.3283833  26.3964083
  31.8790113  33.4383833  25.7224083  32.3160113  34.0893833  25.7424083
  26.8080113  33.3963833  20.0664083  26.8060113  33.2793833  19.2014083
  26.6270113  34.2443833  20.1584083  26.7810113  33.5043833  19.9524083
  23.1610113  36.2283833  19.7004083  23.0330113  35.7803833  20.4384083
  22.5790113  35.8863833  19.1484083  23.0560113  36.1113833  19.7284083
  23.3280113  38.0583833  26.2994083  22.5470113  37.9993833  25.9164083
  23.4000113  37.3063833  26.7364083  23.2230113  37.9393833  26.3074083
  23.7580113  37.7953833  29.7674083  23.7830113  37.1203833  29.2164083
  23.1120113  38.2913833  29.4554083  23.6670113  37.7683833  29.6404083
  33.6530113  35.5083833  28.1634083  32.9910113  35.8363833  28.6264083
  33.8400113  36.1423833  27.5944083  33.5830113  35.6503833  28.1474083
  30.2980113  31.4143833  31.5924083  30.4470113  30.5893833  31.3494083
  30.6770113  31.4693833  32.3764083  30.3760113  31.3003833  31.6724083
  31.8460113  33.4773833  21.6744083  32.3360113  34.1943833  21.5974083
  31.0560113  33.7383833  21.4114083  31.8020113  33.6213833  21.6244083
  28.4280113  34.9473833  27.3994083  28.9080113  35.6463833  27.6074083
  28.8010113  34.3003833  27.8504083  28.5540113  34.9553833  27.4964083
  30.6170113  38.1163833  19.6734083  30.6090113  38.8383833  19.1834083
  29.9780113  38.2513833  20.2504083  30.5220113  38.2433833  19.6864083
  25.2100113  30.4583833  19.3344083  25.3070113  30.3513833  20.1954083
  24.5020113  30.9643833  19.2694083  25.1200113  30.5173833  19.4524083
  19.3290113  30.4263833  21.5454083  19.4580113  29.7183833  21.0534083
  18.9620113  30.1083833  22.2704083  19.2940113  30.2743833  21.5804083
  29.0220113  38.1073833  22.0024083  29.0810113  38.7573833  22.5814083
  28.8330113  37.4113833  22.4934083  29.0030113  38.1003833  22.1604083
  23.5180113  32.6243833  18.5144083  23.0070113  32.6773833  17.8084083
  24.3020113  32.8643833  18.2184083  23.5580113  32.6673833  18.3664083
  25.3230113  35.0183833  25.4844083  26.1690113  34.8283833  25.5824083
  24.9530113  34.2413833  25.3464083  25.3930113  34.8753833  25.4784083
  20.1440113  36.3563833  22.1394083  20.6330113  36.0643833  22.8004083
  20.2730113  35.7633833  21.5124083  20.2350113  36.2253833  22.1444083
  24.6690113  37.7903833  17.6254083  24.0590113  37.3853833  18.0994083
  24.2830113  37.9083833  16.8524083  24.5220113  37.7473833  17.5814083
  26.1240113  36.2513833  20.3354083  26.3960113  37.0773833  20.4024083
  25.2610113  36.3263833  20.2394083  26.0370113  36.3843833  20.3304083
  19.6040113  32.2213833  26.8714083  19.6480113  32.5653833  26.0704083
  20.3590113  32.4583833  27.2384083  19.7220113  32.3073833  26.8074083
  34.6530113  35.5193833  24.5974083  33.9080113  35.1963833  24.9154083
  34.6550113  36.3453833  24.8774083  34.5430113  35.5933833  24.6854083
  33.5650113  31.8493833  32.0584083  34.3090113  32.3013833  31.9954083
  32.9990113  32.3193833  31.5894083  33.5920113  31.9863833  31.9804083
  25.4530113  34.7363833  31.8774083  25.6140113  33.9923833  32.3044083
  25.4080113  34.4873833  31.0424083  25.4700113  34.5893833  31.8174083
  34.8500113  29.8293833  29.7284083  34.5700113  30.6543833  29.6844083
  35.5660113  29.8823833  30.2244083  34.9150113  29.9593833  29.7954083
  27.2050113  30.5443833  31.7574083  27.9100113  30.8643833  31.3554083
  27.4460113  29.7373833  31.9844083  27.3440113  30.4723833  31.7314083
  23.7140113  35.5973833  27.8184083  24.1540113  35.4943833  27.0724083
  24.2590113  35.2843833  28.4234083  23.8590113  35.5363833  27.7974083
  31.4180113  36.2363833  29.7084083  31.7200113  36.6563833  30.4114083
  31.4540113  35.3963833  29.9404083  31.4680113  36.1743833  29.8464083
  33.9660113  35.6833833  21.9604083  34.1730113  35.4823833  22.7844083
  34.7220113  35.9513833  21.6184083  34.1080113  35.6933833  22.0314083
  27.2610113  30.5823833  27.8654083  26.4350113  30.4333833  28.1024083
  27.2210113  30.6173833  26.9944083  27.1330113  30.5653833  27.7714083
  34.9880113  31.7663833  23.4344083  34.2740113  31.2953833  23.6054083
  34.8260113  32.1073833  22.6484083  34.8590113  31.7473833  23.3434083
  22.8900113  33.7243833  21.1254083  23.0160113  33.3953833  20.3274083
  22.0780113  33.4753833  21.3244083  22.7890113  33.6393833  21.0374083
  32.0800113  37.5433833  32.1484083  31.8250113  36.8243833  32.5704083
  32.9010113  37.6593833  32.4184083  32.1640113  37.4543833  32.2504083
  22.8670113  35.7353833  31.5414083  23.2420113  36.3543833  31.0544083
  23.5410113  35.2613833  31.8264083  23.0220113  35.7573833  31.5114083
  20.6420113  34.1833833  30.8164083  20.7190113  34.0143833  29.9634083
  21.3880113  34.5893833  31.0134083  20.7630113  34.2183833  30.7194083
  35.3030113  36.9693833  30.6124083  35.3010113  36.1063833  30.7364083
  35.3700113  37.2933833  31.4194083  35.3130113  36.8893833  30.7494083
  21.4950113  35.3453833  17.6584083  20.8230113  35.3593833  18.2144083
  21.5900113  34.4973833  17.4744083  21.4100113  35.2223833  17.7134083
  30.1760113  31.9593833  25.2484083  29.4760113  32.4773833  25.1924083
  30.2140113  31.5793833  24.4644083  30.0780113  31.9803833  25.1244083
  33.7740113  32.4753833  28.0484083  34.6290113  32.5743833  28.1934083
  33.4050113  33.0283833  28.6134083  33.8460113  32.5723833  28.1534083
  34.0780113  37.7553833  26.5394083  34.7440113  38.2963833  26.6994083
  33.7330113  38.0663833  25.8004083  34.1250113  37.8813833  26.4544083
  25.2310113  31.6783833  29.8754083  24.3670113  31.7623833  29.9554083
  25.4510113  31.1643833  30.5444083  25.1360113  31.6153833  29.9864083
  29.3340113  32.4263833  28.2494083  28.5970113  31.9723833  28.3624083
  29.9050113  32.0243833  28.7724083  29.3090113  32.2993833  28.3434083
  27.6330113  30.0073833  18.0804083  27.7110113  30.2543833  17.2474083
  26.8900113  30.3843833  18.3384083  27.5350113  30.0993833  17.9954083
  22.4510113  31.7613833  30.5234083  22.1080113  30.9943833  30.2894083
  21.7560113  32.2853833  30.5874083  22.2980113  31.7253833  30.4984083
  31.4970113  30.6173833  27.5004083  32.1670113  31.1613833  27.6274083
  30.9940113  31.0413833  26.9274083  31.5220113  30.7603833  27.4344083
  30.8560113  36.4253833  24.9934083  31.4070113  35.8183833  25.2934083
  30.4310113  36.6883833  25.7084083  30.8750113  36.3743833  25.1424083
  21.1040113  35.0753833  24.4794083  20.7360113  35.3773833  25.2104083
  21.6380113  34.4463833  24.7634083  21.1280113  35.0273833  24.6294083
  32.8260113  38.2563833  21.5554083  32.8940113  37.4063833  21.7364083
  32.0030113  38.3423833  21.2774083  32.7140113  38.1433833  21.5414083
  30.2750113  30.3253833   3.9641673  30.0300113  30.8133833   3.2841673
  31.1380113  30.2523833   3.8641673  30.3660113  30.3863833   3.8491673
  30.0840113  37.2413833   8.6351673  29.5600113  37.8373833   8.9981673
  30.4810113  36.8733833   9.3191673  30.0650113  37.2753833   8.7901673
  32.7550113  38.3083833   5.3111673  32.8350113  38.3123833   4.4421673
  32.1710113  37.6763833   5.4601673  32.6800113  38.2153833   5.2051673
  26.7440113  31.4123833   3.1191673  26.6740113  32.0893833   2.5731673
  27.4850113  31.0243833   2.8701673  26.8430113  31.4553833   3.0011673
  21.3390113  38.6373833   4.5481673  20.8770113  38.2453833   3.9211673
  22.0390113  38.1243833   4.6401673  21.3740113  38.5043833   4.4691673
  25.8470113  34.2473833   9.8951673  26.5250113  34.2653833   9.3461673
  25.8020113  33.4113833  10.1401673  25.9400113  34.1263833   9.8501673
  23.3400113  36.7373833   4.5711673  24.1570113  36.5503833   4.8141673
  22.8630113  36.1233833   4.9671673  23.3900113  36.6193833   4.6661673
  29.5690113  36.2983833  14.7311673  28.7210113  36.1993833  14.5531673
  29.5980113  37.0433833  15.1851673  29.4480113  36.3943833  14.7721673
  23.9370113  31.8313833   3.8371673  23.6410113  32.3323833   3.1871673
  24.8040113  31.9093833   3.7801673  24.0210113  31.9173833   3.7331673
  34.1270113  29.2583833  13.8451673  33.9690113  30.0273833  13.4631673
  33.3550113  29.0383833  14.1891673  33.9890113  29.3393833  13.8401673
  26.9160113  30.9733833   6.0601673  26.9890113  31.8333833   6.1891673
  26.8780113  30.8983833   5.1921673  26.9210113  31.0893833   5.9511673
  19.7950113  36.3983833   7.5611673  19.5390113  37.2293833   7.4861673
  19.1310113  36.0153833   7.9781673  19.6590113  36.4643833   7.6121673
  22.8240113  31.2153833   8.0521673  22.3030113  30.5873833   7.7441673
  23.4150113  30.7783833   8.5231673  22.8350113  31.0573833   8.0761673
  26.1300113  33.3483833  17.3501673  26.2470113  32.8943833  16.6141673
  26.4180113  34.1463833  17.1471673  26.1900113  33.3993833  17.2111673
  21.8630113  32.9453833  16.3341673  21.0850113  32.5553833  16.2621673
  22.3540113  32.5333833  15.7431673  21.8200113  32.8263833  16.2361673
  28.5120113  30.5883833  15.5021673  28.6900113  29.7793833  15.2271673
  28.3690113  31.0293833  14.7631673  28.5170113  30.5343833  15.3521673
  29.1060113  35.5143833   4.2751673  29.3930113  35.2823833   3.4851673
  29.8380113  35.5933833   4.7441673  29.2560113  35.4913833   4.2281673
  19.2110113  33.4933833  13.9201673  19.2070113  34.0803833  14.5661673
  19.8050113  33.8053833  13.3631673  19.2980113  33.6263833  13.9331673
  20.1480113  33.0883833   2.8351673  20.0340113  32.2243833   2.8661673
  19.6730113  33.3823833   3.5051673  20.0610113  33.0043833   2.9381673
  28.0500113  33.6043833   5.9931673  28.1240113  34.1723833   5.3351673
  28.1710113  34.0963833   6.7031673  28.0780113  33.7613833   6.0011673
  22.6580113  29.4273833   4.3411673  23.1940113  30.1153833   4.3311673
  22.6610113  29.1533833   3.5131673  22.7370113  29.4883833   4.2171673
  31.8420113  33.7743833  11.8811673  31.7470113  34.0933833  12.6871673
  31.2490113  33.1353833  11.8431673  31.7400113  33.7263833  11.9951673
  33.0980113  29.7183833   4.7171673  33.1470113  29.4003833   5.5281673
  33.4210113  29.0743833   4.2241673  33.1530113  29.5763833   4.7641673
  35.5620113  33.9543833  13.0251673  36.3340113  33.7293833  13.3621673
  35.0870113  34.1713833  13.7251673  35.6060113  33.9533833  13.1781673
  23.1060113  33.2373833   5.9951673  23.3780113  32.8073833   5.2871673
  22.9300113  32.6013833   6.5661673  23.1200113  33.0803833   5.9751673
  21.2470113  34.3393833   9.0771673  22.0900113  34.5593833   9.0341673
  20.8580113  34.9123833   8.5461673  21.3140113  34.4563833   8.9921673
  27.1010113  36.0243833  17.1951673  26.6170113  36.6013833  17.6371673
  27.0730113  36.3193833  16.3741673  27.0250113  36.1533833  17.1391673
  32.3320113  34.1763833   6.6031673  32.6760113  34.3283833   7.3901673
  31.8790113  33.4383833   6.7161673  32.3160113  34.0893833   6.7361673
  22.6760113  36.8313833  15.5541673  22.1400113  36.3253833  16.0221673
  22.6960113  36.4413833  14.7741673  22.5990113  36.6983833  15.5081673
  23.3280113  38.0583833   7.2931673  22.5470113  37.9993833   6.9101673
  23.4000113  37.3063833   7.7301673  23.2230113  37.9393833   7.3011673
  23.7580113  37.7953833  10.7611673  23.7830113  37.1203833  10.2101673
  23.1120113  38.2913833  10.4491673  23.6670113  37.7683833  10.6341673
  33.6530113  35.5083833   9.1571673  32.9910113  35.8363833   9.6201673
  33.8400113  36.1423833   8.5881673  33.5830113  35.6503833   9.1411673
  30.2980113  31.4143833  12.5861673  30.4470113  30.5893833  12.3431673
  30.6770113  31.4693833  13.3701673  30.3760113  31.3003833  12.6661673
  31.8460113  33.4773833   2.6681673  32.3360113  34.1943833   2.5911673
  31.0560113  33.7383833   2.4051673  31.8020113  33.6213833   2.6181673
  28.4280113  34.9473833   8.3931673  28.9080113  35.6463833   8.6011673
  28.8010113  34.3003833   8.8441673  28.5540113  34.9553833   8.4901673
  35.9390113  30.1993833  15.7251673  35.3020113  29.7993833  15.2831673
  35.9650113  29.7683833  16.4831673  35.8490113  30.0773833  15.7711673
  19.3290113  30.4263833   2.5391673  19.4580113  29.7183833   2.0471673
  18.9620113  30.1083833   3.2641673  19.2940113  30.2743833   2.5741673
  29.0220113  38.1073833   2.9961673  29.0810113  38.7573833   3.5751673
  28.8330113  37.4113833   3.4871673  29.0030113  38.1003833   3.1541673
  25.3230113  35.0183833   6.4781673  26.1690113  34.8283833   6.5761673
  24.9530113  34.2413833   6.3401673  25.3930113  34.8753833   6.4721673
  20.1440113  36.3563833   3.1331673  20.6330113  36.0643833   3.7941673
  20.2730113  35.7633833   2.5061673  20.2350113  36.2253833   3.1381673
  34.0970113  33.3733833  15.9611673  33.5720113  33.8323833  16.4851673
  33.7360113  32.5783833  15.9551673  33.9660113  33.3233833  16.0371673
  19.6040113  32.2213833   7.8651673  19.6480113  32.5653833   7.0641673
  20.3590113  32.4583833   8.2321673  19.7220113  32.3073833   7.8011673
  32.5890113  36.9423833  16.0371673  32.6620113  37.0463833  16.9001673
  31.9550113  37.5003833  15.8161673  32.5060113  37.0403833  16.1321673
  34.8570113  37.2613833  14.4021673  35.1760113  38.0473833  14.6051673
  34.4870113  36.9913833  15.1451673  34.8500113  37.3373833  14.5421673
  34.6530113  35.5193833   5.5911673  33.9080113  35.1963833   5.9091673
  34.6550113  36.3453833   5.8711673  34.5430113  35.5933833   5.6791673
  33.5650113  31.8493833  13.0521673  34.3090113  32.3013833  12.9891673
  32.9990113  32.3193833  12.5831673  33.5920113  31.9863833  12.9741673
  25.4530113  34.7363833  12.8711673  25.6140113  33.9923833  13.2981673
  25.4080113  34.4873833  12.0361673  25.4700113  34.5893833  12.8111673
  34.8500113  29.8293833  10.7221673  34.5700113  30.6543833  10.6781673
  35.5660113  29.8823833  11.2181673  34.9150113  29.9593833  10.7891673
  27.2050113  30.5443833  12.7511673  27.9100113  30.8643833  12.3491673
  27.4460113  29.7373833  12.9781673  27.3440113  30.4723833  12.7251673
  23.7140113  35.5973833   8.8121673  24.1540113  35.4943833   8.0661673
  24.2590113  35.2843833   9.4171673  23.8590113  35.5363833   8.7911673
  31.7300113  34.6993833  14.4041673  31.0820113  35.1693833  14.7521673
  32.2950113  34.6103833  15.0631673  31.7180113  34.7553833  14.5531673
  31.4180113  36.2363833  10.7021673  31.7200113  36.6563833  11.4051673
  31.4540113  35.3963833  10.9341673  31.4680113  36.1743833  10.8401673
  33.9660113  35.6833833   2.9541673  34.1730113  35.4823833   3.7781673
  34.7220113  35.9513833   2.6121673  34.1080113  35.6933833   3.0251673
  27.2610113  30.5823833   8.8591673  26.4350113  30.4333833   9.0961673
  27.2210113  30.6173833   7.9881673  27.1330113  30.5653833   8.7651673
  34.9880113  31.7663833   4.4281673  34.2740113  31.2953833   4.5991673
  34.8260113  32.1073833   3.6421673  34.8590113  31.7473833   4.3371673
  19.8260113  30.9803833  14.8941673  19.6860113  31.7753833  14.5631673
  19.0400113  30.7373833  15.1831673  19.6890113  31.0623833  14.8881673
  32.0800113  37.5433833  13.1421673  31.8250113  36.8243833  13.5641673
  32.9010113  37.6593833  13.4121673  32.1640113  37.4543833  13.2441673
  22.8670113  35.7353833  12.5351673  23.2420113  36.3543833  12.0481673
  23.5410113  35.2613833  12.8201673  23.0220113  35.7573833  12.5051673
  20.6420113  34.1833833  11.8101673  20.7190113  34.0143833  10.9571673
  21.3880113  34.5893833  12.0071673  20.7630113  34.2183833  11.7131673
  23.1960113  31.5933833  14.2211673  23.1150113  30.7493833  14.4271673
  22.8820113  31.6373833  13.4081673  23.1380113  31.4753833  14.1311673
  35.3030113  36.9693833  11.6061673  35.3010113  36.1063833  11.7301673
  35.3700113  37.2933833  12.4131673  35.3130113  36.8893833  11.7431673
  31.1820113  31.7693833  15.3881673  31.2740113  32.4813833  15.8821673
  30.5450113  31.3243833  15.7851673  31.1010113  31.8083833  15.5201673
  30.1760113  31.9593833   6.2421673  29.4760113  32.4773833   6.1861673
  30.2140113  31.5793833   5.4581673  30.0780113  31.9803833   6.1181673
  33.7740113  32.4753833   9.0421673  34.6290113  32.5743833   9.1871673
  33.4050113  33.0283833   9.6071673  33.8460113  32.5723833   9.1471673
  34.0780113  37.7553833   7.5331673  34.7440113  38.2963833   7.6931673
  33.7330113  38.0663833   6.7941673  34.1250113  37.8813833   7.4481673
  25.2310113  31.6783833  10.8691673  24.3670113  31.7623833  10.9491673
  25.4510113  31.1643833  11.5381673  25.1360113  31.6153833  10.9801673
  29.3340113  32.4263833   9.2431673  28.5970113  31.9723833   9.3561673
  29.9050113  32.0243833   9.7661673  29.3090113  32.2993833   9.3371673
  26.8370113  36.7553833  14.4471673  26.5150113  36.1793833  13.8771673
  26.4780113  37.5103833  14.2011673  26.7370113  36.7813833  14.3271673
  22.4510113  31.7613833  11.5171673  22.1080113  30.9943833  11.2831673
  21.7560113  32.2853833  11.5811673  22.2980113  31.7253833  11.4921673
  31.4970113  30.6173833   8.4941673  32.1670113  31.1613833   8.6211673
  30.9940113  31.0413833   7.9211673  31.5220113  30.7603833   8.4281673
  30.8560113  36.4253833   5.9871673  31.4070113  35.8183833   6.2871673
  30.4310113  36.6883833   6.7021673  30.8750113  36.3743833   6.1361673
  21.1040113  35.0753833   5.4731673  20.7360113  35.3773833   6.2041673
  21.6380113  34.4463833   5.7571673  21.1280113  35.0273833   5.6231673
  32.8260113  38.2563833   2.5491673  32.8940113  37.4063833   2.7301673
  32.0030113  38.3423833   2.2711673  32.7140113  38.1433833   2.5351673
  25.8840113  32.1223833  14.6031673  26.1180113  31.5463833  13.9901673
  25.0420113  31.9413833  14.7441673  25.7940113  32.0103833  14.5331673
  30.2750113  11.8472753  22.9704083  30.0300113  12.3352753  22.2904083
  31.1380113  11.7742753  22.8704083  30.3660113  11.9082753  22.8554083
  30.0840113  18.7632753  27.6414083  29.5600113  19.3592753  28.0044083
  30.4810113  18.3952753  28.3254083  30.0650113  18.7972753  27.7964083
  19.9530113  22.9032753  23.0974083  19.5120113  23.0212753  23.8404083
  19.6700113  22.1282753  22.8124083  19.8460113  22.8062753  23.1654083
  32.7550113  19.8302753  24.3174083  32.8350113  19.8342753  23.4484083
  32.1710113  19.1982753  24.4664083  32.6800113  19.7372753  24.2114083
  22.4620113  23.5992753  22.1764083  23.0700113  23.4292753  22.7794083
  21.7110113  23.4592753  22.5974083  22.4410113  23.5532753  22.3274083
  26.7440113  12.9342753  22.1254083  26.6740113  13.6112753  21.5794083
  27.4850113  12.5462753  21.8764083  26.8430113  12.9772753  22.0074083
  19.8930113  25.6382753  29.3524083  20.0220113  25.3582753  30.1684083
  19.2830113  25.0972753  29.0434083  19.8220113  25.5172753  29.4274083
  21.3390113  20.1592753  23.5544083  20.8770113  19.7672753  22.9274083
  22.0390113  19.6462753  23.6464083  21.3740113  20.0262753  23.4754083
  25.8470113  15.7692753  28.9014083  26.5250113  15.7872753  28.3524083
  25.8020113  14.9332753  29.1464083  25.9400113  15.6482753  28.8564083
  26.4490113  26.3552753  31.6824083  26.5870113  27.1152753  31.2754083
  27.2400113  25.9902753  31.7094083  26.5860113  26.4142753  31.6264083
  23.3400113  18.2592753  23.5774083  24.1570113  18.0722753  23.8204083
  22.8630113  17.6452753  23.9734083  23.3900113  18.1412753  23.6724083
  27.5440113  24.2402753  26.1874083  27.8920113  23.4412753  26.2174083
  28.2090113  24.7442753  25.9324083  27.6940113  24.1962753  26.1544083
  27.6010113  23.6892753  22.3984083  27.9320113  23.0452753  22.8844083
  27.8410113  23.4782753  21.5874083  27.6850113  23.5632753  22.3504083
  23.9370113  13.3532753  22.8434083  23.6410113  13.8542753  22.1934083
  24.8040113  13.4312753  22.7864083  24.0210113  13.4392753  22.7394083
  26.9160113  12.4952753  25.0664083  26.9890113  13.3552753  25.1954083
  26.8780113  12.4202753  24.1984083  26.9210113  12.6112753  24.9574083
  31.5890113  15.4212753  17.3654083  31.1390113  16.1022753  17.6724083
  31.7030113  14.9172753  18.0684083  31.5400113  15.4472753  17.5144083
  19.7950113  17.9202753  26.5674083  19.5390113  18.7512753  26.4924083
  19.1310113  17.5372753  26.9844083  19.6590113  17.9862753  26.6184083
  19.7050113  27.6302753  24.4674083  19.1130113  28.1882753  24.1544083
  20.1310113  27.3612753  23.7554083  19.6810113  27.6722753  24.3164083
  25.5450113  25.4742753  21.9474083  24.9660113  25.1992753  22.5394083
  26.1690113  24.8652753  21.9724083  25.5520113  25.3442753  22.0384083
  31.6880113  27.7622753  19.4694083  32.4150113  28.2342753  19.5714083
  31.9170113  26.9682753  19.7494083  31.8300113  27.7152753  19.5264083
  29.8560113  28.1542753  21.4594083  30.0700113  28.6812753  22.1214083
  30.6230113  27.9802753  21.0804083  30.0010113  28.2062753  21.5014083
  22.8240113  12.7372753  27.0584083  22.3030113  12.1092753  26.7504083
  23.4150113  12.3002753  27.5294083  22.8350113  12.5792753  27.0824083
  21.2500113  26.3002753  22.3984083  21.9060113  25.7252753  22.4134083
  21.6390113  27.0492753  22.1774083  21.4050113  26.3252753  22.3684083
  32.2950113  28.1642753  29.7644083  33.0390113  28.6202753  29.7544083
  32.1740113  27.9502753  28.9274083  32.3870113  28.2002753  29.6394083
  22.0680113  24.7872753  25.8984083  22.4910113  24.4312753  25.2244083
  22.3920113  24.3652753  26.5904083  22.1780113  24.6722753  25.9014083
  25.2990113  27.6392753  25.1944083  26.1430113  27.7432753  24.9994083
  25.0020113  28.4572753  25.2624083  25.3800113  27.7752753  25.1754083
  29.1060113  17.0362753  23.2814083  29.3930113  16.8042753  22.4914083
  29.8380113  17.1152753  23.7504083  29.2560113  17.0132753  23.2344083
  29.8280113  17.3752753  18.4024083  30.1090113  18.1632753  18.6514083
  29.0520113  17.5402753  18.0394083  29.7550113  17.5162753  18.3854083
  33.8690113  29.3492753  19.8694083  34.5340113  29.2012753  19.3244083
  34.2290113  29.2662753  20.6594083  34.0210113  29.3152753  19.9054083
  24.2970113  28.8582753  30.9344083  24.5890113  28.7912753  31.7544083
  23.6710113  28.2532753  30.8894083  24.2480113  28.7592753  31.0494083
  28.6870113  25.5462753  18.2184083  28.5060113  26.0912753  18.8754083
  29.4530113  25.8362753  17.9174083  28.7730113  25.6702753  18.2714083
  32.1940113  13.4422753  19.2724083  32.7340113  12.7602753  19.3484083
  32.2560113  13.8402753  20.0464083  32.2830113  13.4002753  19.3984083
  20.1480113  14.6102753  21.8414083  20.0340113  13.7462753  21.8724083
  19.6730113  14.9042753  22.5114083  20.0610113  14.5262753  21.9444083
  22.2900113  27.0202753  30.0564083  21.5920113  26.5122753  30.1824083
  22.5500113  26.8152753  29.2484083  22.2250113  26.9152753  29.9554083
  29.4520113  15.8182753  20.5864083  28.9440113  15.1562753  20.3324083
  29.5040113  16.3222753  19.8764083  29.3850113  15.7952753  20.4444083
  30.0010113  28.5132753  30.9664083  30.7690113  28.4332753  30.5604083
  29.4180113  28.3922753  30.3284083  30.0280113  28.4832753  30.8124083
  29.4520113  12.7592753  20.4774083  28.9970113  12.3572753  19.8514083
  30.2250113  12.9142753  20.1024083  29.4990113  12.7232753  20.3294083
  36.2780113  29.1162753  23.8674083  35.8230113  29.8332753  24.0684083
  35.6640113  28.5452753  23.6254083  36.1200113  29.1382753  23.8614083
  28.0500113  15.1262753  24.9994083  28.1240113  15.6942753  24.3414083
  28.1710113  15.6182753  25.7094083  28.0780113  15.2832753  25.0074083
  33.2750113  24.9612753  23.4114083  33.9760113  24.4792753  23.6004083
  32.6150113  24.3922753  23.4564083  33.2810113  24.8062753  23.4454083
  22.6580113  10.9492753  23.3474083  23.1940113  11.6372753  23.3374083
  22.6610113  10.6752753  22.5194083  22.7370113  11.0102753  23.2234083
  25.6140113  21.3822753  27.3724083  25.7860113  21.1722753  28.2014083
  24.9590113  20.8482753  27.1564083  25.5430113  21.2722753  27.4634083
  31.8420113  15.2962753  30.8874083  31.7470113  15.6152753  31.6934083
  31.2490113  14.6572753  30.8494083  31.7400113  15.2482753  31.0014083
  26.3640113  21.3202753  29.9624083  26.4170113  22.1672753  30.1644083
  26.0790113  20.9502753  30.6994083  26.3300113  21.3902753  30.1004083
  32.5410113  22.0152753  29.0924083  32.0270113  21.6032753  29.6634083
  32.4150113  22.8592753  29.2734083  32.4470113  22.0792753  29.2034083
  33.0980113  11.2402753  23.7234083  33.1470113  10.9222753  24.5344083
  33.4210113  10.5962753  23.2304083  33.1530113  11.0982753  23.7704083
  35.5620113  15.4762753  32.0314083  36.3340113  15.2512753  32.3684083
  35.0870113  15.6932753  32.7314083  35.6060113  15.4752753  32.1844083
  23.1060113  14.7592753  25.0014083  23.3780113  14.3292753  24.2934083
  22.9300113  14.1232753  25.5724083  23.1200113  14.6022753  24.9814083
  22.9300113  22.1862753  24.5504083  23.7810113  22.1062753  24.3774083
  22.5730113  21.5042753  24.1384083  23.0030113  22.0732753  24.4634083
  21.6970113  28.9112753  25.7874083  21.0240113  28.4132753  25.5424083
  22.1000113  29.0962753  25.0364083  21.6570113  28.8652753  25.6404083
  21.2470113  15.8612753  28.0834083  22.0900113  16.0812753  28.0404083
  20.8580113  16.4342753  27.5524083  21.3140113  15.9782753  27.9984083
  33.6890113  18.9912753  18.8044083  33.4690113  19.7222753  18.3824083
  33.2410113  19.0422753  19.5514083  33.5900113  19.1062753  18.8524083
  25.2980113  22.1932753  22.7854083  26.0110113  22.6882753  22.8754083
  25.5200113  21.6262753  22.1594083  25.4360113  22.1822753  22.7064083
  19.4540113  23.8362753  26.1054083  18.7870113  24.3242753  26.3814083
  20.1340113  24.3812753  26.1344083  19.4560113  23.9882753  26.1504083
  29.8210113  25.8962753  25.1124083  29.2980113  26.5302753  24.8194083
  30.1310113  25.5322753  24.3834083  29.7890113  25.9362753  24.9614083
  23.8960113  23.6842753  27.8724083  24.3630113  23.9732753  28.5504083
  24.4680113  23.2062753  27.4184083  24.0500113  23.6562753  27.9054083
  32.3320113  15.6982753  25.6094083  32.6760113  15.8502753  26.3964083
  31.8790113  14.9602753  25.7224083  32.3160113  15.6112753  25.7424083
  20.4620113  21.3542753  26.4164083  20.8930113  21.2252753  25.6694083
  20.2570113  22.2022753  26.3904083  20.4950113  21.4602753  26.3024083
  26.8080113  14.9182753  20.0664083  26.8060113  14.8012753  19.2014083
  26.6270113  15.7662753  20.1584083  26.7810113  15.0262753  19.9524083
  35.8620113  27.3452753  31.5634083  35.1910113  27.8592753  31.7814083
  35.9250113  27.4452753  30.6994083  35.7720113  27.4362753  31.4684083
  24.5460113  24.8702753  24.6984083  24.6720113  25.7132753  24.8854083
  25.2140113  24.4712753  25.0944083  24.6640113  24.9362753  24.7844083
  23.1610113  17.7502753  19.7004083  23.0330113  17.3022753  20.4384083
  22.5790113  17.4082753  19.1484083  23.0560113  17.6332753  19.7284083
  23.3280113  19.5802753  26.2994083  22.5470113  19.5212753  25.9164083
  23.4000113  18.8282753  26.7364083  23.2230113  19.4612753  26.3074083
  23.7580113  19.3172753  29.7674083  23.7830113  18.6422753  29.2164083
  23.1120113  19.8132753  29.4554083  23.6670113  19.2902753  29.6404083
  33.6530113  17.0302753  28.1634083  32.9910113  17.3582753  28.6264083
  33.8400113  17.6642753  27.5944083  33.5830113  17.1722753  28.1474083
  27.8580113  28.0942753  29.1594083  27.5810113  27.4532753  28.6364083
  27.6500113  28.8202753  28.7214083  27.7870113  28.1072753  29.0174083
  30.2980113  12.9362753  31.5924083  30.4470113  12.1112753  31.3494083
  30.6770113  12.9912753  32.3764083  30.3760113  12.8222753  31.6724083
  31.8460113  14.9992753  21.6744083  32.3360113  15.7162753  21.5974083
  31.0560113  15.2602753  21.4114083  31.8020113  15.1432753  21.6244083
  28.4280113  16.4692753  27.3994083  28.9080113  17.1682753  27.6074083
  28.8010113  15.8222753  27.8504083  28.5540113  16.4772753  27.4964083
  30.6170113  19.6382753  19.6734083  30.6090113  20.3602753  19.1834083
  29.9780113  19.7732753  20.2504083  30.5220113  19.7652753  19.6864083
  35.5890113  23.5082753  23.6544083  35.9450113  23.1582753  24.3694083
  35.5810113  22.8472753  23.0844083  35.6410113  23.3582753  23.6754083
  31.6340113  26.5742753  27.4984083  31.0310113  26.2782753  26.9414083
  32.1790113  27.0262753  26.9894083  31.6250113  26.5972753  27.3404083
  31.6470113  23.4252753  26.8984083  30.8500113  23.6492753  27.1724083
  31.9050113  22.8312753  27.4834083  31.5670113  23.3702753  27.0254083
  25.5390113  28.2372753  21.3464083  25.3920113  27.4612753  21.7174083
  26.2280113  28.0902753  20.8314083  25.6190113  28.1002753  21.3254083
  25.2100113  11.9802753  19.3344083  25.3070113  11.8732753  20.1954083
  24.5020113  12.4862753  19.2694083  25.1200113  12.0392753  19.4524083
  27.8310113  27.7532753  19.7484083  28.4530113  27.9162753  20.3384083
  27.8670113  28.4442753  19.2164083  27.9280113  27.8792753  19.7574083
  34.9070113  21.4232753  31.7444083  34.9620113  21.5482753  30.8824083
  35.6600113  21.7432753  32.0464083  35.0260113  21.4882753  31.6614083
  22.3320113  20.2872753  20.5774083  22.6560113  19.5082753  20.3554083
  22.9780113  20.6552753  21.0324083  22.4750113  20.2262753  20.6114083
  30.6380113  21.2292753  31.3444083  30.4830113  21.8392753  31.9484083
  31.1720113  20.6712753  31.7504083  30.6940113  21.2372753  31.4934083
  19.3290113  11.9482753  21.5454083  19.4580113  11.2402753  21.0534083
  18.9620113  11.6302753  22.2704083  19.2940113  11.7962753  21.5804083
  29.0220113  19.6292753  22.0024083  29.0810113  20.2792753  22.5814083
  28.8330113  18.9332753  22.4934083  29.0030113  19.6222753  22.1604083
  34.2480113  23.9582753  27.8714083  33.7690113  24.2562753  27.2054083
  33.8920113  23.1822753  28.0494083  34.1250113  23.8872753  27.7994083
  23.5180113  14.1462753  18.5144083  23.0070113  14.1992753  17.8084083
  24.3020113  14.3862753  18.2184083  23.5580113  14.1892753  18.3664083
  28.2450113  21.6762753  26.4334083  27.3980113  21.4822753  26.5144083
  28.5690113  21.5112753  27.2264083  28.1670113  21.6232753  26.5624083
  24.9970113  28.4062753  17.3194083  25.4360113  27.7092753  17.6074083
  25.2040113  29.0302753  17.8924083  25.0930113  28.3952753  17.4464083
  22.0930113  21.3692753  28.7494083  22.8150113  21.8572753  28.7124083
  21.8230113  21.3392753  27.9204083  22.1600113  21.4372753  28.6214083
  25.3230113  16.5402753  25.4844083  26.1690113  16.3502753  25.5824083
  24.9530113  15.7632753  25.3464083  25.3930113  16.3972753  25.4784083
  20.1440113  17.8782753  22.1394083  20.6330113  17.5862753  22.8004083
  20.2730113  17.2852753  21.5124083  20.2350113  17.7472753  22.1444083
  35.1790113  20.9002753  28.9904083  35.1720113  20.1242753  29.3884083
  34.3380113  21.1342753  28.9834083  35.0540113  20.8202753  29.0484083
  24.6690113  19.3122753  17.6254083  24.0590113  18.9072753  18.0994083
  24.2830113  19.4302753  16.8524083  24.5220113  19.2692753  17.5814083
  26.1240113  17.7732753  20.3354083  26.3960113  18.5992753  20.4024083
  25.2610113  17.8482753  20.2394083  26.0370113  17.9062753  20.3304083
  19.6040113  13.7432753  26.8714083  19.6480113  14.0872753  26.0704083
  20.3590113  13.9802753  27.2384083  19.7220113  13.8292753  26.8074083
  34.1710113  25.2072753  18.9384083  34.5050113  24.4012753  18.9734083
  33.4160113  25.1352753  19.3684083  34.1090113  25.0772753  19.0074083
  34.6530113  17.0412753  24.5974083  33.9080113  16.7182753  24.9154083
  34.6550113  17.8672753  24.8774083  34.5430113  17.1152753  24.6854083
  31.5450113  23.0822753  18.3414083  32.2290113  22.5682753  18.1724083
  31.1280113  23.1282753  17.5764083  31.5840113  23.0132753  18.2034083
  26.2270113  24.2322753  29.6454083  25.9290113  24.8242753  30.2124083
  26.2820113  24.6742753  28.8964083  26.1910113  24.3852753  29.6184083
  33.5650113  13.3712753  32.0584083  34.3090113  13.8232753  31.9954083
  32.9990113  13.8412753  31.5894083  33.5920113  13.5082753  31.9804083
  28.7430113  20.6552753  29.1364083  29.2190113  21.0292753  29.7644083
  27.9200113  20.7892753  29.3954083  28.6920113  20.7302753  29.2674083
  25.4530113  16.2582753  31.8774083  25.6140113  15.5142753  32.3044083
  25.4080113  16.0092753  31.0424083  25.4700113  16.1112753  31.8174083
  28.0070113  28.0482753  24.3644083  28.5530113  28.7272753  24.4184083
  27.6570113  28.1302753  23.5694083  28.0360113  28.1612753  24.2544083
  34.8500113  11.3512753  29.7284083  34.5700113  12.1762753  29.6844083
  35.5660113  11.4042753  30.2244083  34.9150113  11.4812753  29.7954083
  27.2050113  12.0662753  31.7574083  27.9100113  12.3862753  31.3554083
  27.4460113  11.2592753  31.9844083  27.3440113  11.9942753  31.7314083
  26.1900113  26.2762753  27.7534083  25.5660113  26.8582753  27.5714083
  26.4380113  25.9902753  26.9674083  26.1340113  26.3202753  27.6104083
  27.7840113  21.0522753  17.6684083  26.9790113  20.8752753  17.3834083
  27.7510113  21.9032753  17.8604083  27.6600113  21.1512753  17.6554083
  23.7140113  17.1192753  27.8184083  24.1540113  17.0162753  27.0724083
  24.2590113  16.8062753  28.4234083  23.8590113  17.0582753  27.7974083
  31.4180113  17.7582753  29.7084083  31.7200113  18.1782753  30.4114083
  31.4540113  16.9182753  29.9404083  31.4680113  17.6962753  29.8464083
  33.9660113  17.2052753  21.9604083  34.1730113  17.0042753  22.7844083
  34.7220113  17.4732753  21.6184083  34.1080113  17.2152753  22.0314083
  27.2610113  12.1042753  27.8654083  26.4350113  11.9552753  28.1024083
  27.2210113  12.1392753  26.9944083  27.1330113  12.0872753  27.7714083
  34.9880113  13.2882753  23.4344083  34.2740113  12.8172753  23.6054083
  34.8260113  13.6292753  22.6484083  34.8590113  13.2692753  23.3434083
  35.4310113  21.2322753  21.8144083  35.9070113  20.5032753  21.7664083
  34.6100113  20.9462753  21.7384083  35.3800113  21.0822753  21.7954083
  24.7320113  29.3512753  27.9704083  24.7430113  29.4102753  28.8404083
  24.3070113  28.6042753  27.8204083  24.6710113  29.2492753  28.0764083
  22.8900113  15.2462753  21.1254083  23.0160113  14.9172753  20.3274083
  22.0780113  14.9972753  21.3244083  22.7890113  15.1612753  21.0374083
  31.6470113  22.3992753  24.1694083  31.7230113  22.7402753  24.9684083
  31.8160113  21.5522753  24.2904083  31.6830113  22.3242753  24.3054083
  29.1690113  21.6732753  23.7344083  28.8710113  21.3582753  24.4914083
  29.8640113  22.1462753  23.9694083  29.2280113  21.6962753  23.8814083
  29.3910113  25.7912753  31.7614083  30.0780113  25.6772753  32.2864083
  29.5250113  26.5822753  31.4174083  29.5120113  25.8912753  31.7884083
  32.0800113  19.0652753  32.1484083  31.8250113  18.3462753  32.5704083
  32.9010113  19.1812753  32.4184083  32.1640113  18.9762753  32.2504083
  33.0980113  28.6292753  26.2644083  32.6470113  29.2722753  26.6434083
  33.8060113  28.5502753  26.7694083  33.1360113  28.7122753  26.3954083
  29.7990113  23.7192753  29.1944083  29.1050113  24.1212753  29.5374083
  30.4760113  24.1522753  29.5334083  29.7960113  23.8422753  29.2954083
  22.8670113  17.2572753  31.5414083  23.2420113  17.8762753  31.0544083
  23.5410113  16.7832753  31.8264083  23.0220113  17.2792753  31.5114083
  20.6420113  15.7052753  30.8164083  20.7190113  15.5362753  29.9634083
  21.3880113  16.1112753  31.0134083  20.7630113  15.7402753  30.7194083
  30.1210113  25.3102753  22.3634083  29.9160113  26.1432753  22.2044083
  29.3460113  24.9282753  22.4854083  29.9760113  25.3772753  22.3584083
  35.3030113  18.4912753  30.6124083  35.3010113  17.6282753  30.7364083
  35.3700113  18.8152753  31.4194083  35.3130113  18.4112753  30.7494083
  20.0390113  20.9312753  31.0404083  20.3590113  21.1502753  30.2594083
  19.9390113  20.0662753  30.9854083  20.0710113  20.8362753  30.9174083
  30.1760113  13.4812753  25.2484083  29.4760113  13.9992753  25.1924083
  30.2140113  13.1012753  24.4644083  30.0780113  13.5022753  25.1244083
  33.7740113  13.9972753  28.0484083  34.6290113  14.0962753  28.1934083
  33.4050113  14.5502753  28.6134083  33.8460113  14.0942753  28.1534083
  24.8020113  20.2232753  32.4254083  24.4060113  20.9972753  32.5004083
  24.3960113  19.8502753  31.7494083  24.6840113  20.2822753  32.3364083
  34.0780113  19.2772753  26.5394083  34.7440113  19.8182753  26.6994083
  33.7330113  19.5882753  25.8004083  34.1250113  19.4032753  26.4544083
  34.3910113  27.3432753  22.3464083  34.2170113  26.6892753  22.8964083
  35.1040113  27.0722753  21.9234083  34.4710113  27.2062753  22.3654083
  25.2310113  13.2002753  29.8754083  24.3670113  13.2842753  29.9554083
  25.4510113  12.6862753  30.5444083  25.1360113  13.1372753  29.9864083
  29.3340113  13.9482753  28.2494083  28.5970113  13.4942753  28.3624083
  29.9050113  13.5462753  28.7724083  29.3090113  13.8212753  28.3434083
  32.0660113  24.7962753  30.0374083  32.2720113  25.0972753  30.8294083
  32.0050113  25.5182753  29.5524083  32.0870113  24.9472753  30.0824083
  27.6330113  11.5292753  18.0804083  27.7110113  11.7762753  17.2474083
  26.8900113  11.9062753  18.3384083  27.5350113  11.6212753  17.9954083
  34.9830113  26.6952753  28.2924083  35.5100113  26.6122753  27.6014083
  34.5920113  25.9172753  28.3464083  35.0030113  26.5682753  28.1984083
  22.4510113  13.2832753  30.5234083  22.1080113  12.5162753  30.2894083
  21.7560113  13.8072753  30.5874083  22.2980113  13.2472753  30.4984083
  31.4970113  12.1392753  27.5004083  32.1670113  12.6832753  27.6274083
  30.9940113  12.5632753  26.9274083  31.5220113  12.2822753  27.4344083
  30.8560113  17.9472753  24.9934083  31.4070113  17.3402753  25.2934083
  30.4310113  18.2102753  25.7084083  30.8750113  17.8962753  25.1424083
  21.1040113  16.5972753  24.4794083  20.7360113  16.8992753  25.2104083
  21.6380113  15.9682753  24.7634083  21.1280113  16.5492753  24.6294083
  20.7920113  25.0052753  31.9904083  20.2180113  25.4212753  32.4994083
  21.5250113  25.4702753  32.0854083  20.8160113  25.1352753  32.0794083
  32.8260113  19.7782753  21.5554083  32.8940113  18.9282753  21.7364083
  32.0030113  19.8642753  21.2774083  32.7140113  19.6652753  21.5414083
  22.5780113  28.2722753  20.7654083  22.4330113  28.4282753  19.9194083
  23.4440113  28.3512753  20.8434083  22.6850113  28.3072753  20.6524083
  26.7450113  20.6692753  20.4934083  26.8450113  20.8082753  19.6384083
  27.5630113  20.6092753  20.7894083  26.8800113  20.6802753  20.4104083
  31.9800113  24.9982753  20.2954083  31.7290113  24.8702753  21.1214083
  31.6630113  24.3032753  19.8744083  31.8960113  24.8772753  20.3554083
  23.2650113  27.0872753  27.2424083  23.1860113  26.2772753  26.9264083
  22.8210113  27.5742753  26.6704083  23.1880113  27.0392753  27.1114083
  28.8660113  23.2062753  19.7254083  29.5830113  22.8592753  19.3694083
  28.8320113  24.0062753  19.3774083  28.9670113  23.2732753  19.6214083
  20.8370113  29.3312753  30.8234083  21.3300113  29.2752753  31.5414083
  21.0250113  28.5982753  30.3884083  20.9380113  29.2142753  30.8654083
  30.2750113  11.8472753   3.9641673  30.0300113  12.3352753   3.2841673
  31.1380113  11.7742753   3.8641673  30.3660113  11.9082753   3.8491673
  30.0840113  18.7632753   8.6351673  29.5600113  19.3592753   8.9981673
  30.4810113  18.3952753   9.3191673  30.0650113  18.7972753   8.7901673
  19.9530113  22.9032753   4.0911673  19.5120113  23.0212753   4.8341673
  19.6700113  22.1282753   3.8061673  19.8460113  22.8062753   4.1591673
  32.7550113  19.8302753   5.3111673  32.8350113  19.8342753   4.4421673
  32.1710113  19.1982753   5.4601673  32.6800113  19.7372753   5.2051673
  22.4620113  23.5992753   3.1701673  23.0700113  23.4292753   3.7731673
  21.7110113  23.4592753   3.5911673  22.4410113  23.5532753   3.3211673
  26.7440113  12.9342753   3.1191673  26.6740113  13.6112753   2.5731673
  27.4850113  12.5462753   2.8701673  26.8430113  12.9772753   3.0011673
  19.8930113  25.6382753  10.3461673  20.0220113  25.3582753  11.1621673
  19.2830113  25.0972753  10.0371673  19.8220113  25.5172753  10.4211673
  26.4670113  23.1632753  15.4131673  26.2310113  23.1602753  16.2531673
  25.7190113  23.0152753  14.9891673  26.3210113  23.1402753  15.4741673
  21.3390113  20.1592753   4.5481673  20.8770113  19.7672753   3.9211673
  22.0390113  19.6462753   4.6401673  21.3740113  20.0262753   4.4691673
  25.8470113  15.7692753   9.8951673  26.5250113  15.7872753   9.3461673
  25.8020113  14.9332753  10.1401673  25.9400113  15.6482753   9.8501673
  26.4490113  26.3552753  12.6761673  26.5870113  27.1152753  12.2691673
  27.2400113  25.9902753  12.7031673  26.5860113  26.4142753  12.6201673
  23.3400113  18.2592753   4.5711673  24.1570113  18.0722753   4.8141673
  22.8630113  17.6452753   4.9671673  23.3900113  18.1412753   4.6661673
  27.5440113  24.2402753   7.1811673  27.8920113  23.4412753   7.2111673
  28.2090113  24.7442753   6.9261673  27.6940113  24.1962753   7.1481673
  27.6010113  23.6892753   3.3921673  27.9320113  23.0452753   3.8781673
  27.8410113  23.4782753   2.5811673  27.6850113  23.5632753   3.3441673
  29.5690113  17.8202753  14.7311673  28.7210113  17.7212753  14.5531673
  29.5980113  18.5652753  15.1851673  29.4480113  17.9162753  14.7721673
  23.9370113  13.3532753   3.8371673  23.6410113  13.8542753   3.1871673
  24.8040113  13.4312753   3.7801673  24.0210113  13.4392753   3.7331673
  34.1270113  10.7802753  13.8451673  33.9690113  11.5492753  13.4631673
  33.3550113  10.5602753  14.1891673  33.9890113  10.8612753  13.8401673
  26.9160113  12.4952753   6.0601673  26.9890113  13.3552753   6.1891673
  26.8780113  12.4202753   5.1921673  26.9210113  12.6112753   5.9511673
  19.7950113  17.9202753   7.5611673  19.5390113  18.7512753   7.4861673
  19.1310113  17.5372753   7.9781673  19.6590113  17.9862753   7.6121673
  19.7050113  27.6302753   5.4611673  19.1130113  28.1882753   5.1481673
  20.1310113  27.3612753   4.7491673  19.6810113  27.6722753   5.3101673
  25.5450113  25.4742753   2.9411673  24.9660113  25.1992753   3.5331673
  26.1690113  24.8652753   2.9661673  25.5520113  25.3442753   3.0321673
  29.8560113  28.1542753   2.4531673  30.0700113  28.6812753   3.1151673
  30.6230113  27.9802753   2.0741673  30.0010113  28.2062753   2.4951673
  22.8240113  12.7372753   8.0521673  22.3030113  12.1092753   7.7441673
  23.4150113  12.3002753   8.5231673  22.8350113  12.5792753   8.0761673
  26.1300113  14.8702753  17.3501673  26.2470113  14.4162753  16.6141673
  26.4180113  15.6682753  17.1471673  26.1900113  14.9212753  17.2111673
  21.2500113  26.3002753   3.3921673  21.9060113  25.7252753   3.4071673
  21.6390113  27.0492753   3.1711673  21.4050113  26.3252753   3.3621673
  32.2950113  28.1642753  10.7581673  33.0390113  28.6202753  10.7481673
  32.1740113  27.9502753   9.9211673  32.3870113  28.2002753  10.6331673
  21.8630113  14.4672753  16.3341673  21.0850113  14.0772753  16.2621673
  22.3540113  14.0552753  15.7431673  21.8200113  14.3482753  16.2361673
  22.0680113  24.7872753   6.8921673  22.4910113  24.4312753   6.2181673
  22.3920113  24.3652753   7.5841673  22.1780113  24.6722753   6.8951673
  25.2990113  27.6392753   6.1881673  26.1430113  27.7432753   5.9931673
  25.0020113  28.4572753   6.2561673  25.3800113  27.7752753   6.1691673
  28.5120113  12.1102753  15.5021673  28.6900113  11.3012753  15.2271673
  28.3690113  12.5512753  14.7631673  28.5170113  12.0562753  15.3521673
  29.1060113  17.0362753   4.2751673  29.3930113  16.8042753   3.4851673
  29.8380113  17.1152753   4.7441673  29.2560113  17.0132753   4.2281673
  24.2970113  28.8582753  11.9281673  24.5890113  28.7912753  12.7481673
  23.6710113  28.2532753  11.8831673  24.2480113  28.7592753  12.0431673
  31.5490113  25.3492753  14.4621673  31.5150113  25.7312753  15.2461673
  32.4030113  25.3072753  14.2911673  31.6700113  25.3992753  14.5531673
  20.1480113  14.6102753   2.8351673  20.0340113  13.7462753   2.8661673
  19.6730113  14.9042753   3.5051673  20.0610113  14.5262753   2.9381673
  22.2900113  27.0202753  11.0501673  21.5920113  26.5122753  11.1761673
  22.5500113  26.8152753  10.2421673  22.2250113  26.9152753  10.9491673
  30.0010113  28.5132753  11.9601673  30.7690113  28.4332753  11.5541673
  29.4180113  28.3922753  11.3221673  30.0280113  28.4832753  11.8061673
  36.2780113  29.1162753   4.8611673  35.8230113  29.8332753   5.0621673
  35.6640113  28.5452753   4.6191673  36.1200113  29.1382753   4.8551673
  28.0500113  15.1262753   5.9931673  28.1240113  15.6942753   5.3351673
  28.1710113  15.6182753   6.7031673  28.0780113  15.2832753   6.0011673
  33.2750113  24.9612753   4.4051673  33.9760113  24.4792753   4.5941673
  32.6150113  24.3922753   4.4501673  33.2810113  24.8062753   4.4391673
  22.6580113  10.9492753   4.3411673  23.1940113  11.6372753   4.3311673
  22.6610113  10.6752753   3.5131673  22.7370113  11.0102753   4.2171673
  25.6140113  21.3822753   8.3661673  25.7860113  21.1722753   9.1951673
  24.9590113  20.8482753   8.1501673  25.5430113  21.2722753   8.4571673
  31.8420113  15.2962753  11.8811673  31.7470113  15.6152753  12.6871673
  31.2490113  14.6572753  11.8431673  31.7400113  15.2482753  11.9951673
  26.3640113  21.3202753  10.9561673  26.4170113  22.1672753  11.1581673
  26.0790113  20.9502753  11.6931673  26.3300113  21.3902753  11.0941673
  32.5410113  22.0152753  10.0861673  32.0270113  21.6032753  10.6571673
  32.4150113  22.8592753  10.2671673  32.4470113  22.0792753  10.1971673
  33.0980113  11.2402753   4.7171673  33.1470113  10.9222753   5.5281673
  33.4210113  10.5962753   4.2241673  33.1530113  11.0982753   4.7641673
  35.5620113  15.4762753  13.0251673  36.3340113  15.2512753  13.3621673
  35.0870113  15.6932753  13.7251673  35.6060113  15.4752753  13.1781673
  23.1060113  14.7592753   5.9951673  23.3780113  14.3292753   5.2871673
  22.9300113  14.1232753   6.5661673  23.1200113  14.6022753   5.9751673
  22.9300113  22.1862753   5.5441673  23.7810113  22.1062753   5.3711673
  22.5730113  21.5042753   5.1321673  23.0030113  22.0732753   5.4571673
  21.6970113  28.9112753   6.7811673  21.0240113  28.4132753   6.5361673
  22.1000113  29.0962753   6.0301673  21.6570113  28.8652753   6.6341673
  21.2470113  15.8612753   9.0771673  22.0900113  16.0812753   9.0341673
  20.8580113  16.4342753   8.5461673  21.3140113  15.9782753   8.9921673
  25.2980113  22.1932753   3.7791673  26.0110113  22.6882753   3.8691673
  25.5200113  21.6262753   3.1531673  25.4360113  22.1822753   3.7001673
  19.4540113  23.8362753   7.0991673  18.7870113  24.3242753   7.3751673
  20.1340113  24.3812753   7.1281673  19.4560113  23.9882753   7.1441673
  27.1010113  17.5462753  17.1951673  26.6170113  18.1232753  17.6371673
  27.0730113  17.8412753  16.3741673  27.0250113  17.6752753  17.1391673
  29.8210113  25.8962753   6.1061673  29.2980113  26.5302753   5.8131673
  30.1310113  25.5322753   5.3771673  29.7890113  25.9362753   5.9551673
  19.6920113  24.6842753   1.7771673  20.2440113  25.2532753   2.1411673
  19.4600113  24.1692753   2.4421673  19.7390113  24.6922753   1.9291673
  23.8960113  23.6842753   8.8661673  24.3630113  23.9732753   9.5441673
  24.4680113  23.2062753   8.4121673  24.0500113  23.6562753   8.8991673
  32.3320113  15.6982753   6.6031673  32.6760113  15.8502753   7.3901673
  31.8790113  14.9602753   6.7161673  32.3160113  15.6112753   6.7361673
  20.4620113  21.3542753   7.4101673  20.8930113  21.2252753   6.6631673
  20.2570113  22.2022753   7.3841673  20.4950113  21.4602753   7.2961673
  35.8620113  27.3452753  12.5571673  35.1910113  27.8592753  12.7751673
  35.9250113  27.4452753  11.6931673  35.7720113  27.4362753  12.4621673
  24.5460113  24.8702753   5.6921673  24.6720113  25.7132753   5.8791673
  25.2140113  24.4712753   6.0881673  24.6640113  24.9362753   5.7781673
  23.3280113  19.5802753   7.2931673  22.5470113  19.5212753   6.9101673
  23.4000113  18.8282753   7.7301673  23.2230113  19.4612753   7.3011673
  23.7580113  19.3172753  10.7611673  23.7830113  18.6422753  10.2101673
  23.1120113  19.8132753  10.4491673  23.6670113  19.2902753  10.6341673
  33.6530113  17.0302753   9.1571673  32.9910113  17.3582753   9.6201673
  33.8400113  17.6642753   8.5881673  33.5830113  17.1722753   9.1411673
  27.8580113  28.0942753  10.1531673  27.5810113  27.4532753   9.6301673
  27.6500113  28.8202753   9.7151673  27.7870113  28.1072753  10.0111673
  30.2980113  12.9362753  12.5861673  30.4470113  12.1112753  12.3431673
  30.6770113  12.9912753  13.3701673  30.3760113  12.8222753  12.6661673
  31.8460113  14.9992753   2.6681673  32.3360113  15.7162753   2.5911673
  31.0560113  15.2602753   2.4051673  31.8020113  15.1432753   2.6181673
  33.1600113  22.8772753  14.5781673  33.6440113  23.5952753  14.6761673
  33.5540113  22.4502753  13.9271673  33.2900113  22.9202753  14.4961673
  27.4560113  25.7222753  15.7551673  27.8100113  25.5442753  16.5321673
  27.0200113  24.9932753  15.5561673  27.4440113  25.5882753  15.8411673
  28.4280113  16.4692753   8.3931673  28.9080113  17.1682753   8.6011673
  28.8010113  15.8222753   8.8441673  28.5540113  16.4772753   8.4901673
  35.5890113  23.5082753   4.6481673  35.9450113  23.1582753   5.3631673
  35.5810113  22.8472753   4.0781673  35.6410113  23.3582753   4.6691673
  31.6340113  26.5742753   8.4921673  31.0310113  26.2782753   7.9351673
  32.1790113  27.0262753   7.9831673  31.6250113  26.5972753   8.3341673
  31.6470113  23.4252753   7.8921673  30.8500113  23.6492753   8.1661673
  31.9050113  22.8312753   8.4771673  31.5670113  23.3702753   8.0191673
  25.5390113  28.2372753   2.3401673  25.3920113  27.4612753   2.7111673
  26.2280113  28.0902753   1.8251673  25.6190113  28.1002753   2.3191673
  34.9070113  21.4232753  12.7381673  34.9620113  21.5482753  11.8761673
  35.6600113  21.7432753  13.0401673  35.0260113  21.4882753  12.6551673
  31.0980113  26.7722753  17.0151673  31.2620113  27.0552753  17.8241673
  31.3610113  27.4332753  16.5101673  31.1610113  26.9122753  17.0601673
  35.9390113  11.7212753  15.7251673  35.3020113  11.3212753  15.2831673
  35.9650113  11.2902753  16.4831673  35.8490113  11.5992753  15.7711673
  30.6380113  21.2292753  12.3381673  30.4830113  21.8392753  12.9421673
  31.1720113  20.6712753  12.7441673  30.6940113  21.2372753  12.4871673
  19.3290113  11.9482753   2.5391673  19.4580113  11.2402753   2.0471673
  18.9620113  11.6302753   3.2641673  19.2940113  11.7962753   2.5741673
  29.0220113  19.6292753   2.9961673  29.0810113  20.2792753   3.5751673
  28.8330113  18.9332753   3.4871673  29.0030113  19.6222753   3.1541673
  34.2480113  23.9582753   8.8651673  33.7690113  24.2562753   8.1991673
  33.8920113  23.1822753   9.0431673  34.1250113  23.8872753   8.7931673
  28.2450113  21.6762753   7.4271673  27.3980113  21.4822753   7.5081673
  28.5690113  21.5112753   8.2201673  28.1670113  21.6232753   7.5561673
  22.0930113  21.3692753   9.7431673  22.8150113  21.8572753   9.7061673
  21.8230113  21.3392753   8.9141673  22.1600113  21.4372753   9.6151673
  25.3230113  16.5402753   6.4781673  26.1690113  16.3502753   6.5761673
  24.9530113  15.7632753   6.3401673  25.3930113  16.3972753   6.4721673
  20.1440113  17.8782753   3.1331673  20.6330113  17.5862753   3.7941673
  20.2730113  17.2852753   2.5061673  20.2350113  17.7472753   3.1381673
  35.1790113  20.9002753   9.9841673  35.1720113  20.1242753  10.3821673
  34.3380113  21.1342753   9.9771673  35.0540113  20.8202753  10.0421673
  34.0970113  14.8952753  15.9611673  33.5720113  15.3542753  16.4851673
  33.7360113  14.1002753  15.9551673  33.9660113  14.8452753  16.0371673
  19.6040113  13.7432753   7.8651673  19.6480113  14.0872753   7.0641673
  20.3590113  13.9802753   8.2321673  19.7220113  13.8292753   7.8011673
  32.5890113  18.4642753  16.0371673  32.6620113  18.5682753  16.9001673
  31.9550113  19.0222753  15.8161673  32.5060113  18.5622753  16.1321673
  34.8570113  18.7832753  14.4021673  35.1760113  19.5692753  14.6051673
  34.4870113  18.5132753  15.1451673  34.8500113  18.8592753  14.5421673
  34.6530113  17.0412753   5.5911673  33.9080113  16.7182753   5.9091673
  34.6550113  17.8672753   5.8711673  34.5430113  17.1152753   5.6791673
  26.2270113  24.2322753  10.6391673  25.9290113  24.8242753  11.2061673
  26.2820113  24.6742753   9.8901673  26.1910113  24.3852753  10.6121673
  24.2060113  23.1822753  14.0371673  23.4000113  22.8922753  14.2041673
  24.1170113  24.0502753  14.0431673  24.0740113  23.2672753  14.0621673
  33.5650113  13.3712753  13.0521673  34.3090113  13.8232753  12.9891673
  32.9990113  13.8412753  12.5831673  33.5920113  13.5082753  12.9741673
  28.7430113  20.6552753  10.1301673  29.2190113  21.0292753  10.7581673
  27.9200113  20.7892753  10.3891673  28.6920113  20.7302753  10.2611673
  25.4530113  16.2582753  12.8711673  25.6140113  15.5142753  13.2981673
  25.4080113  16.0092753  12.0361673  25.4700113  16.1112753  12.8111673
  28.0070113  28.0482753   5.3581673  28.5530113  28.7272753   5.4121673
  27.6570113  28.1302753   4.5631673  28.0360113  28.1612753   5.2481673
  34.8500113  11.3512753  10.7221673  34.5700113  12.1762753  10.6781673
  35.5660113  11.4042753  11.2181673  34.9150113  11.4812753  10.7891673
  27.2050113  12.0662753  12.7511673  27.9100113  12.3862753  12.3491673
  27.4460113  11.2592753  12.9781673  27.3440113  11.9942753  12.7251673
  26.1900113  26.2762753   8.7471673  25.5660113  26.8582753   8.5651673
  26.4380113  25.9902753   7.9611673  26.1340113  26.3202753   8.6041673
  30.4990113  22.9102753  15.7361673  31.2560113  23.1962753  15.4101673
  29.9520113  22.9622753  15.0581673  30.5300113  22.9602753  15.5871673
  34.4080113  25.4602753  14.2401673  34.7540113  25.7302753  14.9941673
  34.7020113  26.0422753  13.6601673  34.5030113  25.5862753  14.2661673
  23.7140113  17.1192753   8.8121673  24.1540113  17.0162753   8.0661673
  24.2590113  16.8062753   9.4171673  23.8590113  17.0582753   8.7911673
  31.7300113  16.2212753  14.4041673  31.0820113  16.6912753  14.7521673
  32.2950113  16.1322753  15.0631673  31.7180113  16.2772753  14.5531673
  31.4180113  17.7582753  10.7021673  31.7200113  18.1782753  11.4051673
  31.4540113  16.9182753  10.9341673  31.4680113  17.6962753  10.8401673
  28.8430113  27.9252753  14.6271673  29.3210113  27.3252753  14.2111673
  28.4920113  27.4822753  15.2921673  28.8620113  27.7712753  14.6641673
  33.9660113  17.2052753   2.9541673  34.1730113  17.0042753   3.7781673
  34.7220113  17.4732753   2.6121673  34.1080113  17.2152753   3.0251673
  27.2610113  12.1042753   8.8591673  26.4350113  11.9552753   9.0961673
  27.2210113  12.1392753   7.9881673  27.1330113  12.0872753   8.7651673
  34.9880113  13.2882753   4.4281673  34.2740113  12.8172753   4.5991673
  34.8260113  13.6292753   3.6421673  34.8590113  13.2692753   4.3371673
  35.4310113  21.2322753   2.8081673  35.9070113  20.5032753   2.7601673
  34.6100113  20.9462753   2.7321673  35.3800113  21.0822753   2.7891673
  28.9020113  23.1442753  13.6471673  28.1070113  23.0802753  13.9981673
  28.9730113  23.9912753  13.4521673  28.7950113  23.2592753  13.6701673
  19.8260113  12.5022753  14.8941673  19.6860113  13.2972753  14.5631673
  19.0400113  12.2592753  15.1831673  19.6890113  12.5842753  14.8881673
  24.7320113  29.3512753   8.9641673  24.7430113  29.4102753   9.8341673
  24.3070113  28.6042753   8.8141673  24.6710113  29.2492753   9.0701673
  31.6470113  22.3992753   5.1631673  31.7230113  22.7402753   5.9621673
  31.8160113  21.5522753   5.2841673  31.6830113  22.3242753   5.2991673
  29.1690113  21.6732753   4.7281673  28.8710113  21.3582753   5.4851673
  29.8640113  22.1462753   4.9631673  29.2280113  21.6962753   4.8751673
  29.3910113  25.7912753  12.7551673  30.0780113  25.6772753  13.2801673
  29.5250113  26.5822753  12.4111673  29.5120113  25.8912753  12.7821673
  32.0800113  19.0652753  13.1421673  31.8250113  18.3462753  13.5641673
  32.9010113  19.1812753  13.4121673  32.1640113  18.9762753  13.2441673
  21.4960113  28.8492753  14.4061673  20.8420113  28.2802753  14.5041673
  21.1210113  29.6222753  14.5571673  21.3440113  28.8792753  14.4431673
  30.0140113  20.2552753  16.3291673  30.3370113  20.9412753  15.8971673
  29.3100113  20.5782753  16.7311673  29.9570113  20.4042753  16.3241673
  33.0980113  28.6292753   7.2581673  32.6470113  29.2722753   7.6371673
  33.8060113  28.5502753   7.7631673  33.1360113  28.7122753   7.3891673
  29.7990113  23.7192753  10.1881673  29.1050113  24.1212753  10.5311673
  30.4760113  24.1522753  10.5271673  29.7960113  23.8422753  10.2891673
  35.1760113  26.3122753  16.7681673  35.9520113  25.9222753  16.8511673
  34.7070113  25.9762753  17.4231673  35.2210113  26.2052753  16.8771673
  22.8670113  17.2572753  12.5351673  23.2420113  17.8762753  12.0481673
  23.5410113  16.7832753  12.8201673  23.0220113  17.2792753  12.5051673
  20.6420113  15.7052753  11.8101673  20.7190113  15.5362753  10.9571673
  21.3880113  16.1112753  12.0071673  20.7630113  15.7402753  11.7131673
  23.1960113  13.1152753  14.2211673  23.1150113  12.2712753  14.4271673
  22.8820113  13.1592753  13.4081673  23.1380113  12.9972753  14.1311673
  30.1210113  25.3102753   3.3571673  29.9160113  26.1432753   3.1981673
  29.3460113  24.9282753   3.4791673  29.9760113  25.3772753   3.3521673
  35.3030113  18.4912753  11.6061673  35.3010113  17.6282753  11.7301673
  35.3700113  18.8152753  12.4131673  35.3130113  18.4112753  11.7431673
  20.0390113  20.9312753  12.0341673  20.3590113  21.1502753  11.2531673
  19.9390113  20.0662753  11.9791673  20.0710113  20.8362753  11.9111673
  31.1820113  13.2912753  15.3881673  31.2740113  14.0032753  15.8821673
  30.5450113  12.8462753  15.7851673  31.1010113  13.3302753  15.5201673
  30.1760113  13.4812753   6.2421673  29.4760113  13.9992753   6.1861673
  30.2140113  13.1012753   5.4581673  30.0780113  13.5022753   6.1181673
  33.7740113  13.9972753   9.0421673  34.6290113  14.0962753   9.1871673
  33.4050113  14.5502753   9.6071673  33.8460113  14.0942753   9.1471673
  24.8020113  20.2232753  13.4191673  24.4060113  20.9972753  13.4941673
  24.3960113  19.8502753  12.7431673  24.6840113  20.2822753  13.3301673
  34.0780113  19.2772753   7.5331673  34.7440113  19.8182753   7.6931673
  33.7330113  19.5882753   6.7941673  34.1250113  19.4032753   7.4481673
  34.3910113  27.3432753   3.3401673  34.2170113  26.6892753   3.8901673
  35.1040113  27.0722753   2.9171673  34.4710113  27.2062753   3.3591673
  25.2310113  13.2002753  10.8691673  24.3670113  13.2842753  10.9491673
  25.4510113  12.6862753  11.5381673  25.1360113  13.1372753  10.9801673
  29.3340113  13.9482753   9.2431673  28.5970113  13.4942753   9.3561673
  29.9050113  13.5462753   9.7661673  29.3090113  13.8212753   9.3371673
  32.0660113  24.7962753  11.0311673  32.2720113  25.0972753  11.8231673
  32.0050113  25.5182753  10.5461673  32.0870113  24.9472753  11.0761673
  31.6000113  29.0102753  15.2771673  30.8470113  28.9922753  14.8361673
  31.7680113  29.8622753  15.3611673  31.5140113  29.1332753  15.2241673
  26.8370113  18.2772753  14.4471673  26.5150113  17.7012753  13.8771673
  26.4780113  19.0322753  14.2011673  26.7370113  18.3032753  14.3271673
  25.2720113  28.6332753  14.6951673  25.3130113  28.7592753  15.5581673
  25.9230113  28.0732753  14.5391673  25.3740113  28.5692753  14.8001673
  34.9830113  26.6952753   9.2861673  35.5100113  26.6122753   8.5951673
  34.5920113  25.9172753   9.3401673  35.0030113  26.5682753   9.1921673
  22.4510113  13.2832753  11.5171673  22.1080113  12.5162753  11.2831673
  21.7560113  13.8072753  11.5811673  22.2980113  13.2472753  11.4921673
  31.4970113  12.1392753   8.4941673  32.1670113  12.6832753   8.6211673
  30.9940113  12.5632753   7.9211673  31.5220113  12.2822753   8.4281673
  30.8560113  17.9472753   5.9871673  31.4070113  17.3402753   6.2871673
  30.4310113  18.2102753   6.7021673  30.8750113  17.8962753   6.1361673
  21.1040113  16.5972753   5.4731673  20.7360113  16.8992753   6.2041673
  21.6380113  15.9682753   5.7571673  21.1280113  16.5492753   5.6231673
  20.7920113  25.0052753  12.9841673  20.2180113  25.4212753  13.4931673
  21.5250113  25.4702753  13.0791673  20.8160113  25.1352753  13.0731673
  32.8260113  19.7782753   2.5491673  32.8940113  18.9282753   2.7301673
  32.0030113  19.8642753   2.2711673  32.7140113  19.6652753   2.5351673
  25.8840113  13.6442753  14.6031673  26.1180113  13.0682753  13.9901673
  25.0420113  13.4632753  14.7441673  25.7940113  13.5322753  14.5331673
  33.5110113  21.2622753  17.0551673  34.3820113  21.2262753  17.0191673
  33.2920113  21.6822753  16.3231673  33.6080113  21.3182753  16.9421673
  23.2650113  27.0872753   8.2361673  23.1860113  26.2772753   7.9201673
  22.8210113  27.5742753   7.6641673  23.1880113  27.0392753   8.1051673
  20.8370113  29.3312753  11.8171673  21.3300113  29.2752753  12.5351673
  21.0250113  28.5982753  11.3821673  20.9380113  29.2142753  11.8591673
  19.9530113   4.4251673  23.0974083  19.5120113   4.5431673  23.8404083
  19.6700113   3.6501673  22.8124083  19.8460113   4.3281673  23.1654083
  22.8350113   3.4801673  18.2764083  22.4430113   3.1091673  17.5904083
  22.7550113   2.8821673  18.9054083  22.7650113   3.3371673  18.2674083
  22.4620113   5.1211673  22.1764083  23.0700113   4.9511673  22.7794083
  21.7110113   4.9811673  22.5974083  22.4410113   5.0751673  22.3274083
  21.3530113   8.2121673  18.2534083  21.8200113   8.2961673  17.5214083
  21.8080113   7.6341673  18.7224083  21.4890113   8.1391673  18.2144083
  19.8930113   7.1601673  29.3524083  20.0220113   6.8801673  30.1684083
  19.2830113   6.6191673  29.0434083  19.8220113   7.0391673  29.4274083
  26.4490113   7.8771673  31.6824083  26.5870113   8.6371673  31.2754083
  27.2400113   7.5121673  31.7094083  26.5860113   7.9361673  31.6264083
  27.5440113   5.7621673  26.1874083  27.8920113   4.9631673  26.2174083
  28.2090113   6.2661673  25.9324083  27.6940113   5.7181673  26.1544083
  27.6010113   5.2111673  22.3984083  27.9320113   4.5671673  22.8844083
  27.8410113   5.0001673  21.5874083  27.6850113   5.0851673  22.3504083
  19.7050113   9.1521673  24.4674083  19.1130113   9.7101673  24.1544083
  20.1310113   8.8831673  23.7554083  19.6810113   9.1941673  24.3164083
  25.5450113   6.9961673  21.9474083  24.9660113   6.7211673  22.5394083
  26.1690113   6.3871673  21.9724083  25.5520113   6.8661673  22.0384083
  31.6880113   9.2841673  19.4694083  32.4150113   9.7561673  19.5714083
  31.9170113   8.4901673  19.7494083  31.8300113   9.2371673  19.5264083
  29.8560113   9.6761673  21.4594083  30.0700113  10.2031673  22.1214083
  30.6230113   9.5021673  21.0804083  30.0010113   9.7281673  21.5014083
  21.2500113   7.8221673  22.3984083  21.9060113   7.2471673  22.4134083
  21.6390113   8.5711673  22.1774083  21.4050113   7.8471673  22.3684083
  32.2950113   9.6861673  29.7644083  33.0390113  10.1421673  29.7544083
  32.1740113   9.4721673  28.9274083  32.3870113   9.7221673  29.6394083
  22.0680113   6.3091673  25.8984083  22.4910113   5.9531673  25.2244083
  22.3920113   5.8871673  26.5904083  22.1780113   6.1941673  25.9014083
  25.2990113   9.1611673  25.1944083  26.1430113   9.2651673  24.9994083
  25.0020113   9.9791673  25.2624083  25.3800113   9.2971673  25.1754083
  33.8690113  10.8711673  19.8694083  34.5340113  10.7231673  19.3244083
  34.2290113  10.7881673  20.6594083  34.0210113  10.8371673  19.9054083
  24.2970113  10.3801673  30.9344083  24.5890113  10.3131673  31.7544083
  23.6710113   9.7751673  30.8894083  24.2480113  10.2811673  31.0494083
  28.6870113   7.0681673  18.2184083  28.5060113   7.6131673  18.8754083
  29.4530113   7.3581673  17.9174083  28.7730113   7.1921673  18.2714083
  22.2900113   8.5421673  30.0564083  21.5920113   8.0341673  30.1824083
  22.5500113   8.3371673  29.2484083  22.2250113   8.4371673  29.9554083
  30.0010113  10.0351673  30.9664083  30.7690113   9.9551673  30.5604083
  29.4180113   9.9141673  30.3284083  30.0280113  10.0051673  30.8124083
  36.2780113  10.6381673  23.8674083  35.8230113  11.3551673  24.0684083
  35.6640113  10.0671673  23.6254083  36.1200113  10.6601673  23.8614083
  33.2750113   6.4831673  23.4114083  33.9760113   6.0011673  23.6004083
  32.6150113   5.9141673  23.4564083  33.2810113   6.3281673  23.4454083
  25.6140113   2.9041673  27.3724083  25.7860113   2.6941673  28.2014083
  24.9590113   2.3701673  27.1564083  25.5430113   2.7941673  27.4634083
  26.3640113   2.8421673  29.9624083  26.4170113   3.6891673  30.1644083
  26.0790113   2.4721673  30.6994083  26.3300113   2.9121673  30.1004083
  32.5410113   3.5371673  29.0924083  32.0270113   3.1251673  29.6634083
  32.4150113   4.3811673  29.2734083  32.4470113   3.6011673  29.2034083
  22.9300113   3.7081673  24.5504083  23.7810113   3.6281673  24.3774083
  22.5730113   3.0261673  24.1384083  23.0030113   3.5951673  24.4634083
  21.6970113  10.4331673  25.7874083  21.0240113   9.9351673  25.5424083
  22.1000113  10.6181673  25.0364083  21.6570113  10.3871673  25.6404083
  25.2980113   3.7151673  22.7854083  26.0110113   4.2101673  22.8754083
  25.5200113   3.1481673  22.1594083  25.4360113   3.7041673  22.7064083
  19.4540113   5.3581673  26.1054083  18.7870113   5.8461673  26.3814083
  20.1340113   5.9031673  26.1344083  19.4560113   5.5101673  26.1504083
  29.8210113   7.4181673  25.1124083  29.2980113   8.0521673  24.8194083
  30.1310113   7.0541673  24.3834083  29.7890113   7.4581673  24.9614083
  19.6920113   6.2061673  20.7834083  20.2440113   6.7751673  21.1474083
  19.4600113   5.6911673  21.4484083  19.7390113   6.2141673  20.9354083
  23.8960113   5.2061673  27.8724083  24.3630113   5.4951673  28.5504083
  24.4680113   4.7281673  27.4184083  24.0500113   5.1781673  27.9054083
  19.5220113   4.6551673  18.4114083  20.2780113   4.2231673  18.4694083
  19.5370113   5.1871673  19.1024083  19.6360113   4.6701673  18.5224083
  20.4620113   2.8761673  26.4164083  20.8930113   2.7471673  25.6694083
  20.2570113   3.7241673  26.3904083  20.4950113   2.9821673  26.3024083
  35.8620113   8.8671673  31.5634083  35.1910113   9.3811673  31.7814083
  35.9250113   8.9671673  30.6994083  35.7720113   8.9581673  31.4684083
  24.5460113   6.3921673  24.6984083  24.6720113   7.2351673  24.8854083
  25.2140113   5.9931673  25.0944083  24.6640113   6.4581673  24.7844083
  27.8580113   9.6161673  29.1594083  27.5810113   8.9751673  28.6364083
  27.6500113  10.3421673  28.7214083  27.7870113   9.6291673  29.0174083
  35.5890113   5.0301673  23.6544083  35.9450113   4.6801673  24.3694083
  35.5810113   4.3691673  23.0844083  35.6410113   4.8801673  23.6754083
  31.6340113   8.0961673  27.4984083  31.0310113   7.8001673  26.9414083
  32.1790113   8.5481673  26.9894083  31.6250113   8.1191673  27.3404083
  31.6470113   4.9471673  26.8984083  30.8500113   5.1711673  27.1724083
  31.9050113   4.3531673  27.4834083  31.5670113   4.8921673  27.0254083
  25.5390113   9.7591673  21.3464083  25.3920113   8.9831673  21.7174083
  26.2280113   9.6121673  20.8314083  25.6190113   9.6221673  21.3254083
  27.8310113   9.2751673  19.7484083  28.4530113   9.4381673  20.3384083
  27.8670113   9.9661673  19.2164083  27.9280113   9.4011673  19.7574083
  34.9070113   2.9451673  31.7444083  34.9620113   3.0701673  30.8824083
  35.6600113   3.2651673  32.0464083  35.0260113   3.0101673  31.6614083
  30.6380113   2.7511673  31.3444083  30.4830113   3.3611673  31.9484083
  31.1720113   2.1931673  31.7504083  30.6940113   2.7591673  31.4934083
  34.2480113   5.4801673  27.8714083  33.7690113   5.7781673  27.2054083
  33.8920113   4.7041673  28.0494083  34.1250113   5.4091673  27.7994083
  28.2450113   3.1981673  26.4334083  27.3980113   3.0041673  26.5144083
  28.5690113   3.0331673  27.2264083  28.1670113   3.1451673  26.5624083
  24.9970113   9.9281673  17.3194083  25.4360113   9.2311673  17.6074083
  25.2040113  10.5521673  17.8924083  25.0930113   9.9171673  17.4464083
  22.0930113   2.8911673  28.7494083  22.8150113   3.3791673  28.7124083
  21.8230113   2.8611673  27.9204083  22.1600113   2.9591673  28.6214083
  34.1710113   6.7291673  18.9384083  34.5050113   5.9231673  18.9734083
  33.4160113   6.6571673  19.3684083  34.1090113   6.5991673  19.0074083
  31.5450113   4.6041673  18.3414083  32.2290113   4.0901673  18.1724083
  31.1280113   4.6501673  17.5764083  31.5840113   4.5351673  18.2034083
  26.2270113   5.7541673  29.6454083  25.9290113   6.3461673  30.2124083
  26.2820113   6.1961673  28.8964083  26.1910113   5.9071673  29.6184083
  28.7430113   2.1771673  29.1364083  29.2190113   2.5511673  29.7644083
  27.9200113   2.3111673  29.3954083  28.6920113   2.2521673  29.2674083
  28.0070113   9.5701673  24.3644083  28.5530113  10.2491673  24.4184083
  27.6570113   9.6521673  23.5694083  28.0360113   9.6831673  24.2544083
  26.1900113   7.7981673  27.7534083  25.5660113   8.3801673  27.5714083
  26.4380113   7.5121673  26.9674083  26.1340113   7.8421673  27.6104083
  27.7840113   2.5741673  17.6684083  26.9790113   2.3971673  17.3834083
  27.7510113   3.4251673  17.8604083  27.6600113   2.6731673  17.6554083
  35.4310113   2.7541673  21.8144083  35.9070113   2.0251673  21.7664083
  34.6100113   2.4681673  21.7384083  35.3800113   2.6041673  21.7954083
  24.7320113  10.8731673  27.9704083  24.7430113  10.9321673  28.8404083
  24.3070113  10.1261673  27.8204083  24.6710113  10.7711673  28.0764083
  31.6470113   3.9211673  24.1694083  31.7230113   4.2621673  24.9684083
  31.8160113   3.0741673  24.2904083  31.6830113   3.8461673  24.3054083
  29.1690113   3.1951673  23.7344083  28.8710113   2.8801673  24.4914083
  29.8640113   3.6681673  23.9694083  29.2280113   3.2181673  23.8814083
  29.3910113   7.3131673  31.7614083  30.0780113   7.1991673  32.2864083
  29.5250113   8.1041673  31.4174083  29.5120113   7.4131673  31.7884083
  33.0980113  10.1511673  26.2644083  32.6470113  10.7941673  26.6434083
  33.8060113  10.0721673  26.7694083  33.1360113  10.2341673  26.3954083
  29.7990113   5.2411673  29.1944083  29.1050113   5.6431673  29.5374083
  30.4760113   5.6741673  29.5334083  29.7960113   5.3641673  29.2954083
  30.1210113   6.8321673  22.3634083  29.9160113   7.6651673  22.2044083
  29.3460113   6.4501673  22.4854083  29.9760113   6.8991673  22.3584083
  25.4830113   7.0941673  18.7724083  25.9240113   7.1741673  19.5204083
  24.6780113   6.8781673  19.0304083  25.4290113   7.0741673  18.9214083
  34.3910113   8.8651673  22.3464083  34.2170113   8.2111673  22.8964083
  35.1040113   8.5941673  21.9234083  34.4710113   8.7281673  22.3654083
  22.8120113   6.1641673  19.3734083  22.5680113   5.8571673  20.1534083
  22.7790113   5.4611673  18.8574083  22.7710113   6.0151673  19.4124083
  25.6310113   4.4091673  18.1164083  24.8130113   4.1411673  18.2564083
  25.6030113   5.2611673  18.3014083  25.5060113   4.4961673  18.1644083
  32.0660113   6.3181673  30.0374083  32.2720113   6.6191673  30.8294083
  32.0050113   7.0401673  29.5524083  32.0870113   6.4691673  30.0824083
  34.9830113   8.2171673  28.2924083  35.5100113   8.1341673  27.6014083
  34.5920113   7.4391673  28.3464083  35.0030113   8.0901673  28.1984083
  20.7920113   6.5271673  31.9904083  20.2180113   6.9431673  32.4994083
  21.5250113   6.9921673  32.0854083  20.8160113   6.6571673  32.0794083
  22.5780113   9.7941673  20.7654083  22.4330113   9.9501673  19.9194083
  23.4440113   9.8731673  20.8434083  22.6850113   9.8291673  20.6524083
  26.7450113   2.1911673  20.4934083  26.8450113   2.3301673  19.6384083
  27.5630113   2.1311673  20.7894083  26.8800113   2.2021673  20.4104083
  31.9800113   6.5201673  20.2954083  31.7290113   6.3921673  21.1214083
  31.6630113   5.8251673  19.8744083  31.8960113   6.3991673  20.3554083
  23.2650113   8.6091673  27.2424083  23.1860113   7.7991673  26.9264083
  22.8210113   9.0961673  26.6704083  23.1880113   8.5611673  27.1114083
  28.8660113   4.7281673  19.7254083  29.5830113   4.3811673  19.3694083
  28.8320113   5.5281673  19.3774083  28.9670113   4.7951673  19.6214083
  20.8370113  10.8531673  30.8234083  21.3300113  10.7971673  31.5414083
  21.0250113  10.1201673  30.3884083  20.9380113  10.7361673  30.8654083
  19.9530113   4.4251673   4.0911673  19.5120113   4.5431673   4.8341673
  19.6700113   3.6501673   3.8061673  19.8460113   4.3281673   4.1591673
  22.4620113   5.1211673   3.1701673  23.0700113   4.9511673   3.7731673
  21.7110113   4.9811673   3.5911673  22.4410113   5.0751673   3.3211673
  19.8930113   7.1601673  10.3461673  20.0220113   6.8801673  11.1621673
  19.2830113   6.6191673  10.0371673  19.8220113   7.0391673  10.4211673
  26.4670113   4.6851673  15.4131673  26.2310113   4.6821673  16.2531673
  25.7190113   4.5371673  14.9891673  26.3210113   4.6621673  15.4741673
  26.4490113   7.8771673  12.6761673  26.5870113   8.6371673  12.2691673
  27.2400113   7.5121673  12.7031673  26.5860113   7.9361673  12.6201673
  27.5440113   5.7621673   7.1811673  27.8920113   4.9631673   7.2111673
  28.2090113   6.2661673   6.9261673  27.6940113   5.7181673   7.1481673
  27.6010113   5.2111673   3.3921673  27.9320113   4.5671673   3.8781673
  27.8410113   5.0001673   2.5811673  27.6850113   5.0851673   3.3441673
  19.7050113   9.1521673   5.4611673  19.1130113   9.7101673   5.1481673
  20.1310113   8.8831673   4.7491673  19.6810113   9.1941673   5.3101673
  25.5450113   6.9961673   2.9411673  24.9660113   6.7211673   3.5331673
  26.1690113   6.3871673   2.9661673  25.5520113   6.8661673   3.0321673
  29.8560113   9.6761673   2.4531673  30.0700113  10.2031673   3.1151673
  30.6230113   9.5021673   2.0741673  30.0010113   9.7281673   2.4951673
  21.2500113   7.8221673   3.3921673  21.9060113   7.2471673   3.4071673
  21.6390113   8.5711673   3.1711673  21.4050113   7.8471673   3.3621673
  32.2950113   9.6861673  10.7581673  33.0390113  10.1421673  10.7481673
  32.1740113   9.4721673   9.9211673  32.3870113   9.7221673  10.6331673
  22.0680113   6.3091673   6.8921673  22.4910113   5.9531673   6.2181673
  22.3920113   5.8871673   7.5841673  22.1780113   6.1941673   6.8951673
  25.2990113   9.1611673   6.1881673  26.1430113   9.2651673   5.9931673
  25.0020113   9.9791673   6.2561673  25.3800113   9.2971673   6.1691673
  24.2970113  10.3801673  11.9281673  24.5890113  10.3131673  12.7481673
  23.6710113   9.7751673  11.8831673  24.2480113  10.2811673  12.0431673
  31.5490113   6.8711673  14.4621673  31.5150113   7.2531673  15.2461673
  32.4030113   6.8291673  14.2911673  31.6700113   6.9211673  14.5531673
  22.2900113   8.5421673  11.0501673  21.5920113   8.0341673  11.1761673
  22.5500113   8.3371673  10.2421673  22.2250113   8.4371673  10.9491673
  30.0010113  10.0351673  11.9601673  30.7690113   9.9551673  11.5541673
  29.4180113   9.9141673  11.3221673  30.0280113  10.0051673  11.8061673
  36.2780113  10.6381673   4.8611673  35.8230113  11.3551673   5.0621673
  35.6640113  10.0671673   4.6191673  36.1200113  10.6601673   4.8551673
  33.2750113   6.4831673   4.4051673  33.9760113   6.0011673   4.5941673
  32.6150113   5.9141673   4.4501673  33.2810113   6.3281673   4.4391673
  23.6510113   7.3931673  13.6171673  24.4920113   7.4561673  13.3951673
  23.6140113   7.7901673  14.3931673  23.7700113   7.4611673  13.6991673
  25.6140113   2.9041673   8.3661673  25.7860113   2.6941673   9.1951673
  24.9590113   2.3701673   8.1501673  25.5430113   2.7941673   8.4571673
  26.3640113   2.8421673  10.9561673  26.4170113   3.6891673  11.1581673
  26.0790113   2.4721673  11.6931673  26.3300113   2.9121673  11.0941673
  32.5410113   3.5371673  10.0861673  32.0270113   3.1251673  10.6571673
  32.4150113   4.3811673  10.2671673  32.4470113   3.6011673  10.1971673
  19.1850113   7.2131673  17.1671673  19.9410113   7.5621673  17.4251673
  19.3620113   6.3601673  17.1101673  19.3230113   7.1381673  17.1971673
  22.9300113   3.7081673   5.5441673  23.7810113   3.6281673   5.3711673
  22.5730113   3.0261673   5.1321673  23.0030113   3.5951673   5.4571673
  21.6970113  10.4331673   6.7811673  21.0240113   9.9351673   6.5361673
  22.1000113  10.6181673   6.0301673  21.6570113  10.3871673   6.6341673
  25.2980113   3.7151673   3.7791673  26.0110113   4.2101673   3.8691673
  25.5200113   3.1481673   3.1531673  25.4360113   3.7041673   3.7001673
  19.4540113   5.3581673   7.0991673  18.7870113   5.8461673   7.3751673
  20.1340113   5.9031673   7.1281673  19.4560113   5.5101673   7.1441673
  29.8210113   7.4181673   6.1061673  29.2980113   8.0521673   5.8131673
  30.1310113   7.0541673   5.3771673  29.7890113   7.4581673   5.9551673
  19.6920113   6.2061673   1.7771673  20.2440113   6.7751673   2.1411673
  19.4600113   5.6911673   2.4421673  19.7390113   6.2141673   1.9291673
  23.8960113   5.2061673   8.8661673  24.3630113   5.4951673   9.5441673
  24.4680113   4.7281673   8.4121673  24.0500113   5.1781673   8.8991673
  20.4620113   2.8761673   7.4101673  20.8930113   2.7471673   6.6631673
  20.2570113   3.7241673   7.3841673  20.4950113   2.9821673   7.2961673
  35.8620113   8.8671673  12.5571673  35.1910113   9.3811673  12.7751673
  35.9250113   8.9671673  11.6931673  35.7720113   8.9581673  12.4621673
  24.5460113   6.3921673   5.6921673  24.6720113   7.2351673   5.8791673
  25.2140113   5.9931673   6.0881673  24.6640113   6.4581673   5.7781673
  27.8580113   9.6161673  10.1531673  27.5810113   8.9751673   9.6301673
  27.6500113  10.3421673   9.7151673  27.7870113   9.6291673  10.0111673
  33.1600113   4.3991673  14.5781673  33.6440113   5.1171673  14.6761673
  33.5540113   3.9721673  13.9271673  33.2900113   4.4421673  14.4961673
  27.4560113   7.2441673  15.7551673  27.8100113   7.0661673  16.5321673
  27.0200113   6.5151673  15.5561673  27.4440113   7.1101673  15.8411673
  35.5890113   5.0301673   4.6481673  35.9450113   4.6801673   5.3631673
  35.5810113   4.3691673   4.0781673  35.6410113   4.8801673   4.6691673
  31.6340113   8.0961673   8.4921673  31.0310113   7.8001673   7.9351673
  32.1790113   8.5481673   7.9831673  31.6250113   8.1191673   8.3341673
  31.6470113   4.9471673   7.8921673  30.8500113   5.1711673   8.1661673
  31.9050113   4.3531673   8.4771673  31.5670113   4.8921673   8.0191673
  25.5390113   9.7591673   2.3401673  25.3920113   8.9831673   2.7111673
  26.2280113   9.6121673   1.8251673  25.6190113   9.6221673   2.3191673
  34.9070113   2.9451673  12.7381673  34.9620113   3.0701673  11.8761673
  35.6600113   3.2651673  13.0401673  35.0260113   3.0101673  12.6551673
  31.0980113   8.2941673  17.0151673  31.2620113   8.5771673  17.8241673
  31.3610113   8.9551673  16.5101673  31.1610113   8.4341673  17.0601673
  30.6380113   2.7511673  12.3381673  30.4830113   3.3611673  12.9421673
  31.1720113   2.1931673  12.7441673  30.6940113   2.7591673  12.4871673
  34.2480113   5.4801673   8.8651673  33.7690113   5.7781673   8.1991673
  33.8920113   4.7041673   9.0431673  34.1250113   5.4091673   8.7931673
  28.2450113   3.1981673   7.4271673  27.3980113   3.0041673   7.5081673
  28.5690113   3.0331673   8.2201673  28.1670113   3.1451673   7.5561673
  22.0930113   2.8911673   9.7431673  22.8150113   3.3791673   9.7061673
  21.8230113   2.8611673   8.9141673  22.1600113   2.9591673   9.6151673
  21.4880113   3.9431673  14.0211673  21.0670113   3.4251673  13.4601673
  21.1360113   4.7291673  13.8781673  21.3740113   3.9831673  13.9171673
  26.2270113   5.7541673  10.6391673  25.9290113   6.3461673  11.2061673
  26.2820113   6.1961673   9.8901673  26.1910113   5.9071673  10.6121673
  24.2060113   4.7041673  14.0371673  23.4000113   4.4141673  14.2041673
  24.1170113   5.5721673  14.0431673  24.0740113   4.7891673  14.0621673
  28.7430113   2.1771673  10.1301673  29.2190113   2.5511673  10.7581673
  27.9200113   2.3111673  10.3891673  28.6920113   2.2521673  10.2611673
  28.0070113   9.5701673   5.3581673  28.5530113  10.2491673   5.4121673
  27.6570113   9.6521673   4.5631673  28.0360113   9.6831673   5.2481673
  26.1900113   7.7981673   8.7471673  25.5660113   8.3801673   8.5651673
  26.4380113   7.5121673   7.9611673  26.1340113   7.8421673   8.6041673
  30.4990113   4.4321673  15.7361673  31.2560113   4.7181673  15.4101673
  29.9520113   4.4841673  15.0581673  30.5300113   4.4821673  15.5871673
  34.4080113   6.9821673  14.2401673  34.7540113   7.2521673  14.9941673
  34.7020113   7.5641673  13.6601673  34.5030113   7.1081673  14.2661673
  28.8430113   9.4471673  14.6271673  29.3210113   8.8471673  14.2111673
  28.4920113   9.0041673  15.2921673  28.8620113   9.2931673  14.6641673
  35.4310113   2.7541673   2.8081673  35.9070113   2.0251673   2.7601673
  34.6100113   2.4681673   2.7321673  35.3800113   2.6041673   2.7891673
  28.9020113   4.6661673  13.6471673  28.1070113   4.6021673  13.9981673
  28.9730113   5.5131673  13.4521673  28.7950113   4.7811673  13.6701673
  24.7320113  10.8731673   8.9641673  24.7430113  10.9321673   9.8341673
  24.3070113  10.1261673   8.8141673  24.6710113  10.7711673   9.0701673
  31.6470113   3.9211673   5.1631673  31.7230113   4.2621673   5.9621673
  31.8160113   3.0741673   5.2841673  31.6830113   3.8461673   5.2991673
  29.1690113   3.1951673   4.7281673  28.8710113   2.8801673   5.4851673
  29.8640113   3.6681673   4.9631673  29.2280113   3.2181673   4.8751673
  29.3910113   7.3131673  12.7551673  30.0780113   7.1991673  13.2801673
  29.5250113   8.1041673  12.4111673  29.5120113   7.4131673  12.7821673
  21.4960113  10.3711673  14.4061673  20.8420113   9.8021673  14.5041673
  21.1210113  11.1441673  14.5571673  21.3440113  10.4011673  14.4431673
  30.0140113   1.7771673  16.3291673  30.3370113   2.4631673  15.8971673
  29.3100113   2.1001673  16.7311673  29.9570113   1.9261673  16.3241673
  33.0980113  10.1511673   7.2581673  32.6470113  10.7941673   7.6371673
  33.8060113  10.0721673   7.7631673  33.1360113  10.2341673   7.3891673
  29.7990113   5.2411673  10.1881673  29.1050113   5.6431673  10.5311673
  30.4760113   5.6741673  10.5271673  29.7960113   5.3641673  10.2891673
  35.1760113   7.8341673  16.7681673  35.9520113   7.4441673  16.8511673
  34.7070113   7.4981673  17.4231673  35.2210113   7.7271673  16.8771673
  30.1210113   6.8321673   3.3571673  29.9160113   7.6651673   3.1981673
  29.3460113   6.4501673   3.4791673  29.9760113   6.8991673   3.3521673
  34.3910113   8.8651673   3.3401673  34.2170113   8.2111673   3.8901673
  35.1040113   8.5941673   2.9171673  34.4710113   8.7281673   3.3591673
  32.0660113   6.3181673  11.0311673  32.2720113   6.6191673  11.8231673
  32.0050113   7.0401673  10.5461673  32.0870113   6.4691673  11.0761673
  31.6000113  10.5321673  15.2771673  30.8470113  10.5141673  14.8361673
  31.7680113  11.3841673  15.3611673  31.5140113  10.6551673  15.2241673
  25.2720113  10.1551673  14.6951673  25.3130113  10.2811673  15.5581673
  25.9230113   9.5951673  14.5391673  25.3740113  10.0911673  14.8001673
  34.9830113   8.2171673   9.2861673  35.5100113   8.1341673   8.5951673
  34.5920113   7.4391673   9.3401673  35.0030113   8.0901673   9.1921673
  22.8650113   8.5381673  16.0551673  23.4600113   8.9691673  16.5271673
  22.5010113   9.1621673  15.5661673  22.8990113   8.6941673  16.0521673
  20.7920113   6.5271673  12.9841673  20.2180113   6.9431673  13.4931673
  21.5250113   6.9921673  13.0791673  20.8160113   6.6571673  13.0731673
  33.5110113   2.7841673  17.0551673  34.3820113   2.7481673  17.0191673
  33.2920113   3.2041673  16.3231673  33.6080113   2.8401673  16.9421673
  23.2650113   8.6091673   8.2361673  23.1860113   7.7991673   7.9201673
  22.8210113   9.0961673   7.6641673  23.1880113   8.5611673   8.1051673
  20.8370113  10.8531673  11.8171673  21.3300113  10.7971673  12.5351673
  21.0250113  10.1201673  11.3821673  20.9380113  10.7361673  11.8591673
  11.4101673  30.3253833  22.9704083  11.1651673  30.8133833  22.2904083
  12.2731673  30.2523833  22.8704083  11.5011673  30.3863833  22.8554083
  11.2191673  37.2413833  27.6414083  10.6951673  37.8373833  28.0044083
  11.6161673  36.8733833  28.3254083  11.2001673  37.2753833  27.7964083
  13.8901673  38.3083833  24.3174083  13.9701673  38.3123833  23.4484083
  13.3061673  37.6763833  24.4664083  13.8151673  38.2153833  24.2114083
   7.8791673  31.4123833  22.1254083   7.8091673  32.0893833  21.5794083
   8.6201673  31.0243833  21.8764083   7.9781673  31.4553833  22.0074083
   2.4741673  38.6373833  23.5544083   2.0121673  38.2453833  22.9274083
   3.1741673  38.1243833  23.6464083   2.5091673  38.5043833  23.4754083
   6.9821673  34.2473833  28.9014083   7.6601673  34.2653833  28.3524083
   6.9371673  33.4113833  29.1464083   7.0751673  34.1263833  28.8564083
   4.4751673  36.7373833  23.5774083   5.2921673  36.5503833  23.8204083
   3.9981673  36.1233833  23.9734083   4.5251673  36.6193833  23.6724083
   5.0721673  31.8313833  22.8434083   4.7761673  32.3323833  22.1934083
   5.9391673  31.9093833  22.7864083   5.1561673  31.9173833  22.7394083
   8.0511673  30.9733833  25.0664083   8.1241673  31.8333833  25.1954083
   8.0131673  30.8983833  24.1984083   8.0561673  31.0893833  24.9574083
  12.7241673  33.8993833  17.3654083  12.2741673  34.5803833  17.6724083
  12.8381673  33.3953833  18.0684083  12.6751673  33.9253833  17.5144083
   3.9591673  31.2153833  27.0584083   3.4381673  30.5873833  26.7504083
   4.5501673  30.7783833  27.5294083   3.9701673  31.0573833  27.0824083
  18.1181673  33.8723833  23.6604083  17.7721673  34.5503833  24.0864083
  17.4821673  33.2743833  23.6764083  17.9731673  33.8843833  23.7254083
  10.2411673  35.5143833  23.2814083  10.5281673  35.2823833  22.4914083
  10.9731673  35.5933833  23.7504083  10.3911673  35.4913833  23.2344083
  10.9631673  35.8533833  18.4024083  11.2441673  36.6413833  18.6514083
  10.1871673  36.0183833  18.0394083  10.8901673  35.9943833  18.3854083
  17.7931673  32.1953833  29.0294083  18.5501673  32.2673833  28.6014083
  17.8561673  31.4223833  29.4284083  17.9141673  32.0923833  29.0244083
  13.3291673  31.9203833  19.2724083  13.8691673  31.2383833  19.3484083
  13.3911673  32.3183833  20.0464083  13.4181673  31.8783833  19.3984083
  10.5871673  34.2963833  20.5864083  10.0791673  33.6343833  20.3324083
  10.6391673  34.8003833  19.8764083  10.5201673  34.2733833  20.4444083
  10.5871673  31.2373833  20.4774083  10.1321673  30.8353833  19.8514083
  11.3601673  31.3923833  20.1024083  10.6341673  31.2013833  20.3294083
   9.1851673  33.6043833  24.9994083   9.2591673  34.1723833  24.3414083
   9.3061673  34.0963833  25.7094083   9.2131673  33.7613833  25.0074083
   3.7931673  29.4273833  23.3474083   4.3291673  30.1153833  23.3374083
   3.7961673  29.1533833  22.5194083   3.8721673  29.4883833  23.2234083
  12.9771673  33.7743833  30.8874083  12.8821673  34.0933833  31.6934083
  12.3841673  33.1353833  30.8494083  12.8751673  33.7263833  31.0014083
  14.2331673  29.7183833  23.7234083  14.2821673  29.4003833  24.5344083
  14.5561673  29.0743833  23.2304083  14.2881673  29.5763833  23.7704083
  16.6971673  33.9543833  32.0314083  17.4691673  33.7293833  32.3684083
  16.2221673  34.1713833  32.7314083  16.7411673  33.9533833  32.1844083
   4.2411673  33.2373833  25.0014083   4.5131673  32.8073833  24.2934083
   4.0651673  32.6013833  25.5724083   4.2551673  33.0803833  24.9814083
   2.3821673  34.3393833  28.0834083   3.2251673  34.5593833  28.0404083
   1.9931673  34.9123833  27.5524083   2.4491673  34.4563833  27.9984083
  14.8241673  37.4693833  18.8044083  14.6041673  38.2003833  18.3824083
  14.3761673  37.5203833  19.5514083  14.7251673  37.5843833  18.8524083
  19.0111673  32.3303833  18.2574083  18.3491673  31.7623833  18.2804083
  18.8181673  32.8423833  17.5774083  18.8851673  32.3223833  18.1604083
  19.3341673  36.7083833  30.8134083  19.5491673  35.9083833  30.5374083
  18.4841673  36.7683833  30.6244083  19.2401673  36.5993833  30.7444083
  17.0131673  31.8883833  20.5364083  17.7591673  31.4813833  20.7354083
  17.2761673  32.6033833  20.1114083  17.1621673  31.9343833  20.5034083
  13.4671673  34.1763833  25.6094083  13.8111673  34.3283833  26.3964083
  13.0141673  33.4383833  25.7224083  13.4511673  34.0893833  25.7424083
   7.9431673  33.3963833  20.0664083   7.9411673  33.2793833  19.2014083
   7.7621673  34.2443833  20.1584083   7.9161673  33.5043833  19.9524083
   4.2961673  36.2283833  19.7004083   4.1681673  35.7803833  20.4384083
   3.7141673  35.8863833  19.1484083   4.1911673  36.1113833  19.7284083
   4.4631673  38.0583833  26.2994083   3.6821673  37.9993833  25.9164083
   4.5351673  37.3063833  26.7364083   4.3581673  37.9393833  26.3074083
   4.8931673  37.7953833  29.7674083   4.9181673  37.1203833  29.2164083
   4.2471673  38.2913833  29.4554083   4.8021673  37.7683833  29.6404083
  14.7881673  35.5083833  28.1634083  14.1261673  35.8363833  28.6264083
  14.9751673  36.1423833  27.5944083  14.7181673  35.6503833  28.1474083
  11.4331673  31.4143833  31.5924083  11.5821673  30.5893833  31.3494083
  11.8121673  31.4693833  32.3764083  11.5111673  31.3003833  31.6724083
  12.9811673  33.4773833  21.6744083  13.4711673  34.1943833  21.5974083
  12.1911673  33.7383833  21.4114083  12.9371673  33.6213833  21.6244083
   9.5631673  34.9473833  27.3994083  10.0431673  35.6463833  27.6074083
   9.9361673  34.3003833  27.8504083   9.6891673  34.9553833  27.4964083
  11.7521673  38.1163833  19.6734083  11.7441673  38.8383833  19.1834083
  11.1131673  38.2513833  20.2504083  11.6571673  38.2433833  19.6864083
   6.3451673  30.4583833  19.3344083   6.4421673  30.3513833  20.1954083
   5.6371673  30.9643833  19.2694083   6.2551673  30.5173833  19.4524083
  10.1571673  38.1073833  22.0024083  10.2161673  38.7573833  22.5814083
   9.9681673  37.4113833  22.4934083  10.1381673  38.1003833  22.1604083
   4.6531673  32.6243833  18.5144083   4.1421673  32.6773833  17.8084083
   5.4371673  32.8643833  18.2184083   4.6931673  32.6673833  18.3664083
   6.4581673  35.0183833  25.4844083   7.3041673  34.8283833  25.5824083
   6.0881673  34.2413833  25.3464083   6.5281673  34.8753833  25.4784083
   5.8041673  37.7903833  17.6254083   5.1941673  37.3853833  18.0994083
   5.4181673  37.9083833  16.8524083   5.6571673  37.7473833  17.5814083
   7.2591673  36.2513833  20.3354083   7.5311673  37.0773833  20.4024083
   6.3961673  36.3263833  20.2394083   7.1721673  36.3843833  20.3304083
  15.7881673  35.5193833  24.5974083  15.0431673  35.1963833  24.9154083
  15.7901673  36.3453833  24.8774083  15.6781673  35.5933833  24.6854083
  14.7001673  31.8493833  32.0584083  15.4441673  32.3013833  31.9954083
  14.1341673  32.3193833  31.5894083  14.7271673  31.9863833  31.9804083
   6.5881673  34.7363833  31.8774083   6.7491673  33.9923833  32.3044083
   6.5431673  34.4873833  31.0424083   6.6051673  34.5893833  31.8174083
  15.9851673  29.8293833  29.7284083  15.7051673  30.6543833  29.6844083
  16.7011673  29.8823833  30.2244083  16.0501673  29.9593833  29.7954083
   8.3401673  30.5443833  31.7574083   9.0451673  30.8643833  31.3554083
   8.5811673  29.7373833  31.9844083   8.4791673  30.4723833  31.7314083
  17.4061673  36.0843833  18.5854083  17.7841673  36.7613833  18.1854083
  16.5641673  36.3083833  18.6164083  17.3371673  36.2173833  18.5304083
   4.8491673  35.5973833  27.8184083   5.2891673  35.4943833  27.0724083
   5.3941673  35.2843833  28.4234083   4.9941673  35.5363833  27.7974083
  12.5531673  36.2363833  29.7084083  12.8551673  36.6563833  30.4114083
  12.5891673  35.3963833  29.9404083  12.6031673  36.1743833  29.8464083
  15.1011673  35.6833833  21.9604083  15.3081673  35.4823833  22.7844083
  15.8571673  35.9513833  21.6184083  15.2431673  35.6933833  22.0314083
   8.3961673  30.5823833  27.8654083   7.5701673  30.4333833  28.1024083
   8.3561673  30.6173833  26.9944083   8.2681673  30.5653833  27.7714083
  16.1231673  31.7663833  23.4344083  15.4091673  31.2953833  23.6054083
  15.9611673  32.1073833  22.6484083  15.9941673  31.7473833  23.3434083
   4.0251673  33.7243833  21.1254083   4.1511673  33.3953833  20.3274083
   3.2131673  33.4753833  21.3244083   3.9241673  33.6393833  21.0374083
  13.2151673  37.5433833  32.1484083  12.9601673  36.8243833  32.5704083
  14.0361673  37.6593833  32.4184083  13.2991673  37.4543833  32.2504083
   4.0021673  35.7353833  31.5414083   4.3771673  36.3543833  31.0544083
   4.6761673  35.2613833  31.8264083   4.1571673  35.7573833  31.5114083
   1.7771673  34.1833833  30.8164083   1.8541673  34.0143833  29.9634083
   2.5231673  34.5893833  31.0134083   1.8981673  34.2183833  30.7194083
  17.3361673  36.8233833  21.2564083  17.4391673  36.7653833  20.3924083
  18.0771673  36.4913833  21.5744083  17.4611673  36.7663833  21.1754083
  16.4381673  36.9693833  30.6124083  16.4361673  36.1063833  30.7364083
  16.5051673  37.2933833  31.4194083  16.4481673  36.8893833  30.7494083
   2.6301673  35.3453833  17.6584083   1.9581673  35.3593833  18.2144083
   2.7251673  34.4973833  17.4744083   2.5451673  35.2223833  17.7134083
  11.3111673  31.9593833  25.2484083  10.6111673  32.4773833  25.1924083
  11.3491673  31.5793833  24.4644083  11.2131673  31.9803833  25.1244083
  14.9091673  32.4753833  28.0484083  15.7641673  32.5743833  28.1934083
  14.5401673  33.0283833  28.6134083  14.9811673  32.5723833  28.1534083
  15.2131673  37.7553833  26.5394083  15.8791673  38.2963833  26.6994083
  14.8681673  38.0663833  25.8004083  15.2601673  37.8813833  26.4544083
   6.3661673  31.6783833  29.8754083   5.5021673  31.7623833  29.9554083
   6.5861673  31.1643833  30.5444083   6.2711673  31.6153833  29.9864083
  18.3841673  30.3133833  31.2044083  18.3321673  30.2693833  32.0744083
  19.0711673  29.8103833  31.0144083  18.4781673  30.2333833  31.3044083
  10.4691673  32.4263833  28.2494083   9.7321673  31.9723833  28.3624083
  11.0401673  32.0243833  28.7724083  10.4441673  32.2993833  28.3434083
   8.7681673  30.0073833  18.0804083   8.8461673  30.2543833  17.2474083
   8.0251673  30.3843833  18.3384083   8.6701673  30.0993833  17.9954083
   3.5861673  31.7613833  30.5234083   3.2431673  30.9943833  30.2894083
   2.8911673  32.2853833  30.5874083   3.4331673  31.7253833  30.4984083
  12.6321673  30.6173833  27.5004083  13.3021673  31.1613833  27.6274083
  12.1291673  31.0413833  26.9274083  12.6571673  30.7603833  27.4344083
  11.9911673  36.4253833  24.9934083  12.5421673  35.8183833  25.2934083
  11.5661673  36.6883833  25.7084083  12.0101673  36.3743833  25.1424083
   2.2391673  35.0753833  24.4794083   1.8711673  35.3773833  25.2104083
   2.7731673  34.4463833  24.7634083   2.2631673  35.0273833  24.6294083
  13.9611673  38.2563833  21.5554083  14.0291673  37.4063833  21.7364083
  13.1381673  38.3423833  21.2774083  13.8491673  38.1433833  21.5414083
  17.7591673  35.1343833  28.4154083  16.9261673  35.3843833  28.3434083
  17.7031673  34.2943833  28.6444083  17.6281673  35.0473833  28.4384083
  11.4101673  30.3253833   3.9641673  11.1651673  30.8133833   3.2841673
  12.2731673  30.2523833   3.8641673  11.5011673  30.3863833   3.8491673
  11.2191673  37.2413833   8.6351673  10.6951673  37.8373833   8.9981673
  11.6161673  36.8733833   9.3191673  11.2001673  37.2753833   8.7901673
  13.8901673  38.3083833   5.3111673  13.9701673  38.3123833   4.4421673
  13.3061673  37.6763833   5.4601673  13.8151673  38.2153833   5.2051673
   7.8791673  31.4123833   3.1191673   7.8091673  32.0893833   2.5731673
   8.6201673  31.0243833   2.8701673   7.9781673  31.4553833   3.0011673
   2.4741673  38.6373833   4.5481673   2.0121673  38.2453833   3.9211673
   3.1741673  38.1243833   4.6401673   2.5091673  38.5043833   4.4691673
   6.9821673  34.2473833   9.8951673   7.6601673  34.2653833   9.3461673
   6.9371673  33.4113833  10.1401673   7.0751673  34.1263833   9.8501673
   4.4751673  36.7373833   4.5711673   5.2921673  36.5503833   4.8141673
   3.9981673  36.1233833   4.9671673   4.5251673  36.6193833   4.6661673
  10.7041673  36.2983833  14.7311673   9.8561673  36.1993833  14.5531673
  10.7331673  37.0433833  15.1851673  10.5831673  36.3943833  14.7721673
   5.0721673  31.8313833   3.8371673   4.7761673  32.3323833   3.1871673
   5.9391673  31.9093833   3.7801673   5.1561673  31.9173833   3.7331673
  15.2621673  29.2583833  13.8451673  15.1041673  30.0273833  13.4631673
  14.4901673  29.0383833  14.1891673  15.1241673  29.3393833  13.8401673
   8.0511673  30.9733833   6.0601673   8.1241673  31.8333833   6.1891673
   8.0131673  30.8983833   5.1921673   8.0561673  31.0893833   5.9511673
   3.9591673  31.2153833   8.0521673   3.4381673  30.5873833   7.7441673
   4.5501673  30.7783833   8.5231673   3.9701673  31.0573833   8.0761673
   7.2651673  33.3483833  17.3501673   7.3821673  32.8943833  16.6141673
   7.5531673  34.1463833  17.1471673   7.3251673  33.3993833  17.2111673
  18.1181673  33.8723833   4.6541673  17.7721673  34.5503833   5.0801673
  17.4821673  33.2743833   4.6701673  17.9731673  33.8843833   4.7191673
   2.9981673  32.9453833  16.3341673   2.2201673  32.5553833  16.2621673
   3.4891673  32.5333833  15.7431673   2.9551673  32.8263833  16.2361673
   9.6471673  30.5883833  15.5021673   9.8251673  29.7793833  15.2271673
   9.5041673  31.0293833  14.7631673   9.6521673  30.5343833  15.3521673
  10.2411673  35.5143833   4.2751673  10.5281673  35.2823833   3.4851673
  10.9731673  35.5933833   4.7441673  10.3911673  35.4913833   4.2281673
  17.7931673  32.1953833  10.0231673  18.5501673  32.2673833   9.5951673
  17.8561673  31.4223833  10.4221673  17.9141673  32.0923833  10.0181673
   9.1851673  33.6043833   5.9931673   9.2591673  34.1723833   5.3351673
   9.3061673  34.0963833   6.7031673   9.2131673  33.7613833   6.0011673
   3.7931673  29.4273833   4.3411673   4.3291673  30.1153833   4.3311673
   3.7961673  29.1533833   3.5131673   3.8721673  29.4883833   4.2171673
  12.9771673  33.7743833  11.8811673  12.8821673  34.0933833  12.6871673
  12.3841673  33.1353833  11.8431673  12.8751673  33.7263833  11.9951673
  14.2331673  29.7183833   4.7171673  14.2821673  29.4003833   5.5281673
  14.5561673  29.0743833   4.2241673  14.2881673  29.5763833   4.7641673
  16.6971673  33.9543833  13.0251673  17.4691673  33.7293833  13.3621673
  16.2221673  34.1713833  13.7251673  16.7411673  33.9533833  13.1781673
   4.2411673  33.2373833   5.9951673   4.5131673  32.8073833   5.2871673
   4.0651673  32.6013833   6.5661673   4.2551673  33.0803833   5.9751673
   2.3821673  34.3393833   9.0771673   3.2251673  34.5593833   9.0341673
   1.9931673  34.9123833   8.5461673   2.4491673  34.4563833   8.9921673
   8.2361673  36.0243833  17.1951673   7.7521673  36.6013833  17.6371673
   8.2081673  36.3193833  16.3741673   8.1601673  36.1533833  17.1391673
  19.3341673  36.7083833  11.8071673  19.5491673  35.9083833  11.5311673
  18.4841673  36.7683833  11.6181673  19.2401673  36.5993833  11.7381673
  13.4671673  34.1763833   6.6031673  13.8111673  34.3283833   7.3901673
  13.0141673  33.4383833   6.7161673  13.4511673  34.0893833   6.7361673
   3.8111673  36.8313833  15.5541673   3.2751673  36.3253833  16.0221673
   3.8311673  36.4413833  14.7741673   3.7341673  36.6983833  15.5081673
   4.4631673  38.0583833   7.2931673   3.6821673  37.9993833   6.9101673
   4.5351673  37.3063833   7.7301673   4.3581673  37.9393833   7.3011673
   4.8931673  37.7953833  10.7611673   4.9181673  37.1203833  10.2101673
   4.2471673  38.2913833  10.4491673   4.8021673  37.7683833  10.6341673
  14.7881673  35.5083833   9.1571673  14.1261673  35.8363833   9.6201673
  14.9751673  36.1423833   8.5881673  14.7181673  35.6503833   9.1411673
  11.4331673  31.4143833  12.5861673  11.5821673  30.5893833  12.3431673
  11.8121673  31.4693833  13.3701673  11.5111673  31.3003833  12.6661673
  12.9811673  33.4773833   2.6681673  13.4711673  34.1943833   2.5911673
  12.1911673  33.7383833   2.4051673  12.9371673  33.6213833   2.6181673
   9.5631673  34.9473833   8.3931673  10.0431673  35.6463833   8.6011673
   9.9361673  34.3003833   8.8441673   9.6891673  34.9553833   8.4901673
  17.0741673  30.1993833  15.7251673  16.4371673  29.7993833  15.2831673
  17.1001673  29.7683833  16.4831673  16.9841673  30.0773833  15.7711673
  10.1571673  38.1073833   2.9961673  10.2161673  38.7573833   3.5751673
   9.9681673  37.4113833   3.4871673  10.1381673  38.1003833   3.1541673
   6.4581673  35.0183833   6.4781673   7.3041673  34.8283833   6.5761673
   6.0881673  34.2413833   6.3401673   6.5281673  34.8753833   6.4721673
  15.2321673  33.3733833  15.9611673  14.7071673  33.8323833  16.4851673
  14.8711673  32.5783833  15.9551673  15.1011673  33.3233833  16.0371673
  13.7241673  36.9423833  16.0371673  13.7971673  37.0463833  16.9001673
  13.0901673  37.5003833  15.8161673  13.6411673  37.0403833  16.1321673
  15.9921673  37.2613833  14.4021673  16.3111673  38.0473833  14.6051673
  15.6221673  36.9913833  15.1451673  15.9851673  37.3373833  14.5421673
  15.7881673  35.5193833   5.5911673  15.0431673  35.1963833   5.9091673
  15.7901673  36.3453833   5.8711673  15.6781673  35.5933833   5.6791673
  18.6901673  37.8033833  17.1371673  18.6381673  37.4623833  16.3361673
  19.4271673  38.2703833  17.1151673  18.7911673  37.8223833  17.0151673
  14.7001673  31.8493833  13.0521673  15.4441673  32.3013833  12.9891673
  14.1341673  32.3193833  12.5831673  14.7271673  31.9863833  12.9741673
   6.5881673  34.7363833  12.8711673   6.7491673  33.9923833  13.2981673
   6.5431673  34.4873833  12.0361673   6.6051673  34.5893833  12.8111673
  15.9851673  29.8293833  10.7221673  15.7051673  30.6543833  10.6781673
  16.7011673  29.8823833  11.2181673  16.0501673  29.9593833  10.7891673
   8.3401673  30.5443833  12.7511673   9.0451673  30.8643833  12.3491673
   8.5811673  29.7373833  12.9781673   8.4791673  30.4723833  12.7251673
   4.8491673  35.5973833   8.8121673   5.2891673  35.4943833   8.0661673
   5.3941673  35.2843833   9.4171673   4.9941673  35.5363833   8.7911673
  12.8651673  34.6993833  14.4041673  12.2171673  35.1693833  14.7521673
  13.4301673  34.6103833  15.0631673  12.8531673  34.7553833  14.5531673
  12.5531673  36.2363833  10.7021673  12.8551673  36.6563833  11.4051673
  12.5891673  35.3963833  10.9341673  12.6031673  36.1743833  10.8401673
  15.1011673  35.6833833   2.9541673  15.3081673  35.4823833   3.7781673
  15.8571673  35.9513833   2.6121673  15.2431673  35.6933833   3.0251673
   8.3961673  30.5823833   8.8591673   7.5701673  30.4333833   9.0961673
   8.3561673  30.6173833   7.9881673   8.2681673  30.5653833   8.7651673
  16.1231673  31.7663833   4.4281673  15.4091673  31.2953833   4.5991673
  15.9611673  32.1073833   3.6421673  15.9941673  31.7473833   4.3371673
  18.7021673  36.8783833  14.5661673  17.8471673  36.7563833  14.6921673
  18.8551673  36.4833833  13.8031673  18.5981673  36.8013833  14.4721673
  13.2151673  37.5433833  13.1421673  12.9601673  36.8243833  13.5641673
  14.0361673  37.6593833  13.4121673  13.2991673  37.4543833  13.2441673
   4.0021673  35.7353833  12.5351673   4.3771673  36.3543833  12.0481673
   4.6761673  35.2613833  12.8201673   4.1571673  35.7573833  12.5051673
   1.7771673  34.1833833  11.8101673   1.8541673  34.0143833  10.9571673
   2.5231673  34.5893833  12.0071673   1.8981673  34.2183833  11.7131673
   4.3311673  31.5933833  14.2211673   4.2501673  30.7493833  14.4271673
   4.0171673  31.6373833  13.4081673   4.2731673  31.4753833  14.1311673
  16.4381673  36.9693833  11.6061673  16.4361673  36.1063833  11.7301673
  16.5051673  37.2933833  12.4131673  16.4481673  36.8893833  11.7431673
  12.3171673  31.7693833  15.3881673  12.4091673  32.4813833  15.8821673
  11.6801673  31.3243833  15.7851673  12.2361673  31.8083833  15.5201673
  11.3111673  31.9593833   6.2421673  10.6111673  32.4773833   6.1861673
  11.3491673  31.5793833   5.4581673  11.2131673  31.9803833   6.1181673
  14.9091673  32.4753833   9.0421673  15.7641673  32.5743833   9.1871673
  14.5401673  33.0283833   9.6071673  14.9811673  32.5723833   9.1471673
  15.2131673  37.7553833   7.5331673  15.8791673  38.2963833   7.6931673
  14.8681673  38.0663833   6.7941673  15.2601673  37.8813833   7.4481673
   6.3661673  31.6783833  10.8691673   5.5021673  31.7623833  10.9491673
   6.5861673  31.1643833  11.5381673   6.2711673  31.6153833  10.9801673
  18.3841673  30.3133833  12.1981673  18.3321673  30.2693833  13.0681673
  19.0711673  29.8103833  12.0081673  18.4781673  30.2333833  12.2981673
  10.4691673  32.4263833   9.2431673   9.7321673  31.9723833   9.3561673
  11.0401673  32.0243833   9.7661673  10.4441673  32.2993833   9.3371673
   7.9721673  36.7553833  14.4471673   7.6501673  36.1793833  13.8771673
   7.6131673  37.5103833  14.2011673   7.8721673  36.7813833  14.3271673
   3.5861673  31.7613833  11.5171673   3.2431673  30.9943833  11.2831673
   2.8911673  32.2853833  11.5811673   3.4331673  31.7253833  11.4921673
  12.6321673  30.6173833   8.4941673  13.3021673  31.1613833   8.6211673
  12.1291673  31.0413833   7.9211673  12.6571673  30.7603833   8.4281673
  11.9911673  36.4253833   5.9871673  12.5421673  35.8183833   6.2871673
  11.5661673  36.6883833   6.7021673  12.0101673  36.3743833   6.1361673
   2.2391673  35.0753833   5.4731673   1.8711673  35.3773833   6.2041673
   2.7731673  34.4463833   5.7571673   2.2631673  35.0273833   5.6231673
  13.9611673  38.2563833   2.5491673  14.0291673  37.4063833   2.7301673
  13.1381673  38.3423833   2.2711673  13.8491673  38.1433833   2.5351673
  17.8601673  34.1933833  16.4381673  17.6641673  34.8373833  16.9931673
  17.1381673  33.7033833  16.4301673  17.7251673  34.2163833  16.5191673
  17.7591673  35.1343833   9.4091673  16.9261673  35.3843833   9.3371673
  17.7031673  34.2943833   9.6381673  17.6281673  35.0473833   9.4321673
   7.0191673  32.1223833  14.6031673   7.2531673  31.5463833  13.9901673
   6.1771673  31.9413833  14.7441673   6.9291673  32.0103833  14.5331673
  11.4101673  11.8472753  22.9704083  11.1651673  12.3352753  22.2904083
  12.2731673  11.7742753  22.8704083  11.5011673  11.9082753  22.8554083
  11.2191673  18.7632753  27.6414083  10.6951673  19.3592753  28.0044083
  11.6161673  18.3952753  28.3254083  11.2001673  18.7972753  27.7964083
   3.9701673  21.9582753  18.2764083   3.5781673  21.5872753  17.5904083
   3.8901673  21.3602753  18.9054083   3.9001673  21.8152753  18.2674083
  13.8901673  19.8302753  24.3174083  13.9701673  19.8342753  23.4484083
  13.3061673  19.1982753  24.4664083  13.8151673  19.7372753  24.2114083
   3.5971673  23.5992753  22.1764083   4.2051673  23.4292753  22.7794083
   2.8461673  23.4592753  22.5974083   3.5761673  23.5532753  22.3274083
   7.8791673  12.9342753  22.1254083   7.8091673  13.6112753  21.5794083
   8.6201673  12.5462753  21.8764083   7.9781673  12.9772753  22.0074083
   2.4881673  26.6902753  18.2534083   2.9551673  26.7742753  17.5214083
   2.9431673  26.1122753  18.7224083   2.6241673  26.6172753  18.2144083
   2.4741673  20.1592753  23.5544083   2.0121673  19.7672753  22.9274083
   3.1741673  19.6462753  23.6464083   2.5091673  20.0262753  23.4754083
   6.9821673  15.7692753  28.9014083   7.6601673  15.7872753  28.3524083
   6.9371673  14.9332753  29.1464083   7.0751673  15.6482753  28.8564083
   7.5841673  26.3552753  31.6824083   7.7221673  27.1152753  31.2754083
   8.3751673  25.9902753  31.7094083   7.7211673  26.4142753  31.6264083
   4.4751673  18.2592753  23.5774083   5.2921673  18.0722753  23.8204083
   3.9981673  17.6452753  23.9734083   4.5251673  18.1412753  23.6724083
   8.6791673  24.2402753  26.1874083   9.0271673  23.4412753  26.2174083
   9.3441673  24.7442753  25.9324083   8.8291673  24.1962753  26.1544083
   8.7361673  23.6892753  22.3984083   9.0671673  23.0452753  22.8844083
   8.9761673  23.4782753  21.5874083   8.8201673  23.5632753  22.3504083
   5.0721673  13.3532753  22.8434083   4.7761673  13.8542753  22.1934083
   5.9391673  13.4312753  22.7864083   5.1561673  13.4392753  22.7394083
   8.0511673  12.4952753  25.0664083   8.1241673  13.3552753  25.1954083
   8.0131673  12.4202753  24.1984083   8.0561673  12.6112753  24.9574083
   6.6801673  25.4742753  21.9474083   6.1011673  25.1992753  22.5394083
   7.3041673  24.8652753  21.9724083   6.6871673  25.3442753  22.0384083
  12.8231673  27.7622753  19.4694083  13.5501673  28.2342753  19.5714083
  13.0521673  26.9682753  19.7494083  12.9651673  27.7152753  19.5264083
  10.9911673  28.1542753  21.4594083  11.2051673  28.6812753  22.1214083
  11.7581673  27.9802753  21.0804083  11.1361673  28.2062753  21.5014083
   3.9591673  12.7372753  27.0584083   3.4381673  12.1092753  26.7504083
   4.5501673  12.3002753  27.5294083   3.9701673  12.5792753  27.0824083
   2.3851673  26.3002753  22.3984083   3.0411673  25.7252753  22.4134083
   2.7741673  27.0492753  22.1774083   2.5401673  26.3252753  22.3684083
  18.1181673  15.3942753  23.6604083  17.7721673  16.0722753  24.0864083
  17.4821673  14.7962753  23.6764083  17.9731673  15.4062753  23.7254083
  13.4301673  28.1642753  29.7644083  14.1741673  28.6202753  29.7544083
  13.3091673  27.9502753  28.9274083  13.5221673  28.2002753  29.6394083
   3.2031673  24.7872753  25.8984083   3.6261673  24.4312753  25.2244083
   3.5271673  24.3652753  26.5904083   3.3131673  24.6722753  25.9014083
   6.4341673  27.6392753  25.1944083   7.2781673  27.7432753  24.9994083
   6.1371673  28.4572753  25.2624083   6.5151673  27.7752753  25.1754083
  10.2411673  17.0362753  23.2814083  10.5281673  16.8042753  22.4914083
  10.9731673  17.1152753  23.7504083  10.3911673  17.0132753  23.2344083
  10.9631673  17.3752753  18.4024083  11.2441673  18.1632753  18.6514083
  10.1871673  17.5402753  18.0394083  10.8901673  17.5162753  18.3854083
  15.0041673  29.3492753  19.8694083  15.6691673  29.2012753  19.3244083
  15.3641673  29.2662753  20.6594083  15.1561673  29.3152753  19.9054083
   5.4321673  28.8582753  30.9344083   5.7241673  28.7912753  31.7544083
   4.8061673  28.2532753  30.8894083   5.3831673  28.7592753  31.0494083
  17.7931673  13.7172753  29.0294083  18.5501673  13.7892753  28.6014083
  17.8561673  12.9442753  29.4284083  17.9141673  13.6142753  29.0244083
   9.8221673  25.5462753  18.2184083   9.6411673  26.0912753  18.8754083
  10.5881673  25.8362753  17.9174083   9.9081673  25.6702753  18.2714083
  13.3291673  13.4422753  19.2724083  13.8691673  12.7602753  19.3484083
  13.3911673  13.8402753  20.0464083  13.4181673  13.4002753  19.3984083
   3.4251673  27.0202753  30.0564083   2.7271673  26.5122753  30.1824083
   3.6851673  26.8152753  29.2484083   3.3601673  26.9152753  29.9554083
  10.5871673  15.8182753  20.5864083  10.0791673  15.1562753  20.3324083
  10.6391673  16.3222753  19.8764083  10.5201673  15.7952753  20.4444083
  11.1361673  28.5132753  30.9664083  11.9041673  28.4332753  30.5604083
  10.5531673  28.3922753  30.3284083  11.1631673  28.4832753  30.8124083
  10.5871673  12.7592753  20.4774083  10.1321673  12.3572753  19.8514083
  11.3601673  12.9142753  20.1024083  10.6341673  12.7232753  20.3294083
  17.4131673  29.1162753  23.8674083  16.9581673  29.8332753  24.0684083
  16.7991673  28.5452753  23.6254083  17.2551673  29.1382753  23.8614083
   9.1851673  15.1262753  24.9994083   9.2591673  15.6942753  24.3414083
   9.3061673  15.6182753  25.7094083   9.2131673  15.2832753  25.0074083
  14.4101673  24.9612753  23.4114083  15.1111673  24.4792753  23.6004083
  13.7501673  24.3922753  23.4564083  14.4161673  24.8062753  23.4454083
   3.7931673  10.9492753  23.3474083   4.3291673  11.6372753  23.3374083
   3.7961673  10.6752753  22.5194083   3.8721673  11.0102753  23.2234083
   6.7491673  21.3822753  27.3724083   6.9211673  21.1722753  28.2014083
   6.0941673  20.8482753  27.1564083   6.6781673  21.2722753  27.4634083
  12.9771673  15.2962753  30.8874083  12.8821673  15.6152753  31.6934083
  12.3841673  14.6572753  30.8494083  12.8751673  15.2482753  31.0014083
   7.4991673  21.3202753  29.9624083   7.5521673  22.1672753  30.1644083
   7.2141673  20.9502753  30.6994083   7.4651673  21.3902753  30.1004083
  13.6761673  22.0152753  29.0924083  13.1621673  21.6032753  29.6634083
  13.5501673  22.8592753  29.2734083  13.5821673  22.0792753  29.2034083
  14.2331673  11.2402753  23.7234083  14.2821673  10.9222753  24.5344083
  14.5561673  10.5962753  23.2304083  14.2881673  11.0982753  23.7704083
  16.6971673  15.4762753  32.0314083  17.4691673  15.2512753  32.3684083
  16.2221673  15.6932753  32.7314083  16.7411673  15.4752753  32.1844083
   4.2411673  14.7592753  25.0014083   4.5131673  14.3292753  24.2934083
   4.0651673  14.1232753  25.5724083   4.2551673  14.6022753  24.9814083
   4.0651673  22.1862753  24.5504083   4.9161673  22.1062753  24.3774083
   3.7081673  21.5042753  24.1384083   4.1381673  22.0732753  24.4634083
   2.8321673  28.9112753  25.7874083   2.1591673  28.4132753  25.5424083
   3.2351673  29.0962753  25.0364083   2.7921673  28.8652753  25.6404083
   2.3821673  15.8612753  28.0834083   3.2251673  16.0812753  28.0404083
   1.9931673  16.4342753  27.5524083   2.4491673  15.9782753  27.9984083
   6.4331673  22.1932753  22.7854083   7.1461673  22.6882753  22.8754083
   6.6551673  21.6262753  22.1594083   6.5711673  22.1822753  22.7064083
  19.3341673  18.2302753  30.8134083  19.5491673  17.4302753  30.5374083
  18.4841673  18.2902753  30.6244083  19.2401673  18.1212753  30.7444083
  17.0131673  13.4102753  20.5364083  17.7591673  13.0032753  20.7354083
  17.2761673  14.1252753  20.1114083  17.1621673  13.4562753  20.5034083
  10.9561673  25.8962753  25.1124083  10.4331673  26.5302753  24.8194083
  11.2661673  25.5322753  24.3834083  10.9241673  25.9362753  24.9614083
   5.0311673  23.6842753  27.8724083   5.4981673  23.9732753  28.5504083
   5.6031673  23.2062753  27.4184083   5.1851673  23.6562753  27.9054083
  13.4671673  15.6982753  25.6094083  13.8111673  15.8502753  26.3964083
  13.0141673  14.9602753  25.7224083  13.4511673  15.6112753  25.7424083
   7.9431673  14.9182753  20.0664083   7.9411673  14.8012753  19.2014083
   7.7621673  15.7662753  20.1584083   7.9161673  15.0262753  19.9524083
  16.9971673  27.3452753  31.5634083  16.3261673  27.8592753  31.7814083
  17.0601673  27.4452753  30.6994083  16.9071673  27.4362753  31.4684083
   5.6811673  24.8702753  24.6984083   5.8071673  25.7132753  24.8854083
   6.3491673  24.4712753  25.0944083   5.7991673  24.9362753  24.7844083
   4.2961673  17.7502753  19.7004083   4.1681673  17.3022753  20.4384083
   3.7141673  17.4082753  19.1484083   4.1911673  17.6332753  19.7284083
   4.4631673  19.5802753  26.2994083   3.6821673  19.5212753  25.9164083
   4.5351673  18.8282753  26.7364083   4.3581673  19.4612753  26.3074083
   4.8931673  19.3172753  29.7674083   4.9181673  18.6422753  29.2164083
   4.2471673  19.8132753  29.4554083   4.8021673  19.2902753  29.6404083
  14.7881673  17.0302753  28.1634083  14.1261673  17.3582753  28.6264083
  14.9751673  17.6642753  27.5944083  14.7181673  17.1722753  28.1474083
   8.9931673  28.0942753  29.1594083   8.7161673  27.4532753  28.6364083
   8.7851673  28.8202753  28.7214083   8.9221673  28.1072753  29.0174083
  11.4331673  12.9362753  31.5924083  11.5821673  12.1112753  31.3494083
  11.8121673  12.9912753  32.3764083  11.5111673  12.8222753  31.6724083
  12.9811673  14.9992753  21.6744083  13.4711673  15.7162753  21.5974083
  12.1911673  15.2602753  21.4114083  12.9371673  15.1432753  21.6244083
   9.5631673  16.4692753  27.3994083  10.0431673  17.1682753  27.6074083
   9.9361673  15.8222753  27.8504083   9.6891673  16.4772753  27.4964083
  11.7521673  19.6382753  19.6734083  11.7441673  20.3602753  19.1834083
  11.1131673  19.7732753  20.2504083  11.6571673  19.7652753  19.6864083
  16.7241673  23.5082753  23.6544083  17.0801673  23.1582753  24.3694083
  16.7161673  22.8472753  23.0844083  16.7761673  23.3582753  23.6754083
  12.7691673  26.5742753  27.4984083  12.1661673  26.2782753  26.9414083
  13.3141673  27.0262753  26.9894083  12.7601673  26.5972753  27.3404083
  12.7821673  23.4252753  26.8984083  11.9851673  23.6492753  27.1724083
  13.0401673  22.8312753  27.4834083  12.7021673  23.3702753  27.0254083
   6.6741673  28.2372753  21.3464083   6.5271673  27.4612753  21.7174083
   7.3631673  28.0902753  20.8314083   6.7541673  28.1002753  21.3254083
   6.3451673  11.9802753  19.3344083   6.4421673  11.8732753  20.1954083
   5.6371673  12.4862753  19.2694083   6.2551673  12.0392753  19.4524083
   8.9661673  27.7532753  19.7484083   9.5881673  27.9162753  20.3384083
   9.0021673  28.4442753  19.2164083   9.0631673  27.8792753  19.7574083
  16.0421673  21.4232753  31.7444083  16.0971673  21.5482753  30.8824083
  16.7951673  21.7432753  32.0464083  16.1611673  21.4882753  31.6614083
   3.4671673  20.2872753  20.5774083   3.7911673  19.5082753  20.3554083
   4.1131673  20.6552753  21.0324083   3.6101673  20.2262753  20.6114083
  11.7731673  21.2292753  31.3444083  11.6181673  21.8392753  31.9484083
  12.3071673  20.6712753  31.7504083  11.8291673  21.2372753  31.4934083
  10.1571673  19.6292753  22.0024083  10.2161673  20.2792753  22.5814083
   9.9681673  18.9332753  22.4934083  10.1381673  19.6222753  22.1604083
  15.3831673  23.9582753  27.8714083  14.9041673  24.2562753  27.2054083
  15.0271673  23.1822753  28.0494083  15.2601673  23.8872753  27.7994083
   4.6531673  14.1462753  18.5144083   4.1421673  14.1992753  17.8084083
   5.4371673  14.3862753  18.2184083   4.6931673  14.1892753  18.3664083
   9.3801673  21.6762753  26.4334083   8.5331673  21.4822753  26.5144083
   9.7041673  21.5112753  27.2264083   9.3021673  21.6232753  26.5624083
   6.1321673  28.4062753  17.3194083   6.5711673  27.7092753  17.6074083
   6.3391673  29.0302753  17.8924083   6.2281673  28.3952753  17.4464083
   3.2281673  21.3692753  28.7494083   3.9501673  21.8572753  28.7124083
   2.9581673  21.3392753  27.9204083   3.2951673  21.4372753  28.6214083
   6.4581673  16.5402753  25.4844083   7.3041673  16.3502753  25.5824083
   6.0881673  15.7632753  25.3464083   6.5281673  16.3972753  25.4784083
  19.0751673  28.1242753  19.8114083  19.7691673  27.6572753  19.5634083
  18.5361673  27.5262753  20.1484083  19.0981673  27.9662753  19.8244083
  16.3141673  20.9002753  28.9904083  16.3071673  20.1242753  29.3884083
  15.4731673  21.1342753  28.9834083  16.1891673  20.8202753  29.0484083
   5.8041673  19.3122753  17.6254083   5.1941673  18.9072753  18.0994083
   5.4181673  19.4302753  16.8524083   5.6571673  19.2692753  17.5814083
  17.5701673  20.9712753  26.4274083  17.2841673  21.3722753  27.1474083
  18.4301673  20.9092753  26.5544083  17.6551673  21.0212753  26.5524083
   7.2591673  17.7732753  20.3354083   7.5311673  18.5992753  20.4024083
   6.3961673  17.8482753  20.2394083   7.1721673  17.9062753  20.3304083
  18.7011673  26.6042753  26.9564083  18.9911673  26.8612753  26.1754083
  19.3961673  26.7002753  27.4754083  18.8471673  26.6562753  26.9174083
  15.3061673  25.2072753  18.9384083  15.6401673  24.4012753  18.9734083
  14.5511673  25.1352753  19.3684083  15.2441673  25.0772753  19.0074083
  15.7881673  17.0412753  24.5974083  15.0431673  16.7182753  24.9154083
  15.7901673  17.8672753  24.8774083  15.6781673  17.1152753  24.6854083
  18.2281673  23.0012753  32.3494083  18.8561673  22.4522753  32.0934083
  18.1671673  23.5662753  31.6874083  18.3121673  23.0042753  32.2134083
  12.6801673  23.0822753  18.3414083  13.3641673  22.5682753  18.1724083
  12.2631673  23.1282753  17.5764083  12.7191673  23.0132753  18.2034083
   7.3621673  24.2322753  29.6454083   7.0641673  24.8242753  30.2124083
   7.4171673  24.6742753  28.8964083   7.3261673  24.3852753  29.6184083
  14.7001673  13.3712753  32.0584083  15.4441673  13.8232753  31.9954083
  14.1341673  13.8412753  31.5894083  14.7271673  13.5082753  31.9804083
   9.8781673  20.6552753  29.1364083  10.3541673  21.0292753  29.7644083
   9.0551673  20.7892753  29.3954083   9.8271673  20.7302753  29.2674083
   6.5881673  16.2582753  31.8774083   6.7491673  15.5142753  32.3044083
   6.5431673  16.0092753  31.0424083   6.6051673  16.1112753  31.8174083
   9.1421673  28.0482753  24.3644083   9.6881673  28.7272753  24.4184083
   8.7921673  28.1302753  23.5694083   9.1711673  28.1612753  24.2544083
  15.9851673  11.3512753  29.7284083  15.7051673  12.1762753  29.6844083
  16.7011673  11.4042753  30.2244083  16.0501673  11.4812753  29.7954083
   8.3401673  12.0662753  31.7574083   9.0451673  12.3862753  31.3554083
   8.5811673  11.2592753  31.9844083   8.4791673  11.9942753  31.7314083
   7.3251673  26.2762753  27.7534083   6.7011673  26.8582753  27.5714083
   7.5731673  25.9902753  26.9674083   7.2691673  26.3202753  27.6104083
   8.9191673  21.0522753  17.6684083   8.1141673  20.8752753  17.3834083
   8.8861673  21.9032753  17.8604083   8.7951673  21.1512753  17.6554083
   4.8491673  17.1192753  27.8184083   5.2891673  17.0162753  27.0724083
   5.3941673  16.8062753  28.4234083   4.9941673  17.0582753  27.7974083
  12.5531673  17.7582753  29.7084083  12.8551673  18.1782753  30.4114083
  12.5891673  16.9182753  29.9404083  12.6031673  17.6962753  29.8464083
  15.1011673  17.2052753  21.9604083  15.3081673  17.0042753  22.7844083
  15.8571673  17.4732753  21.6184083  15.2431673  17.2152753  22.0314083
   8.3961673  12.1042753  27.8654083   7.5701673  11.9552753  28.1024083
   8.3561673  12.1392753  26.9944083   8.2681673  12.0872753  27.7714083
  16.1231673  13.2882753  23.4344083  15.4091673  12.8172753  23.6054083
  15.9611673  13.6292753  22.6484083  15.9941673  13.2692753  23.3434083
  16.5661673  21.2322753  21.8144083  17.0421673  20.5032753  21.7664083
  15.7451673  20.9462753  21.7384083  16.5151673  21.0822753  21.7954083
   5.8671673  29.3512753  27.9704083   5.8781673  29.4102753  28.8404083
   5.4421673  28.6042753  27.8204083   5.8061673  29.2492753  28.0764083
   4.0251673  15.2462753  21.1254083   4.1511673  14.9172753  20.3274083
   3.2131673  14.9972753  21.3244083   3.9241673  15.1612753  21.0374083
  12.7821673  22.3992753  24.1694083  12.8581673  22.7402753  24.9684083
  12.9511673  21.5522753  24.2904083  12.8181673  22.3242753  24.3054083
  10.3041673  21.6732753  23.7344083  10.0061673  21.3582753  24.4914083
  10.9991673  22.1462753  23.9694083  10.3631673  21.6962753  23.8814083
  10.5261673  25.7912753  31.7614083  11.2131673  25.6772753  32.2864083
  10.6601673  26.5822753  31.4174083  10.6471673  25.8912753  31.7884083
  13.2151673  19.0652753  32.1484083  12.9601673  18.3462753  32.5704083
  14.0361673  19.1812753  32.4184083  13.2991673  18.9762753  32.2504083
  14.2331673  28.6292753  26.2644083  13.7821673  29.2722753  26.6434083
  14.9411673  28.5502753  26.7694083  14.2711673  28.7122753  26.3954083
  10.9341673  23.7192753  29.1944083  10.2401673  24.1212753  29.5374083
  11.6111673  24.1522753  29.5334083  10.9311673  23.8422753  29.2954083
   4.0021673  17.2572753  31.5414083   4.3771673  17.8762753  31.0544083
   4.6761673  16.7832753  31.8264083   4.1571673  17.2792753  31.5114083
   1.7771673  15.7052753  30.8164083   1.8541673  15.5362753  29.9634083
   2.5231673  16.1112753  31.0134083   1.8981673  15.7402753  30.7194083
  17.3361673  18.3452753  21.2564083  17.4391673  18.2872753  20.3924083
  18.0771673  18.0132753  21.5744083  17.4611673  18.2882753  21.1754083
  11.2561673  25.3102753  22.3634083  11.0511673  26.1432753  22.2044083
  10.4811673  24.9282753  22.4854083  11.1111673  25.3772753  22.3584083
  16.4381673  18.4912753  30.6124083  16.4361673  17.6282753  30.7364083
  16.5051673  18.8152753  31.4194083  16.4481673  18.4112753  30.7494083
   2.6301673  16.8672753  17.6584083   1.9581673  16.8812753  18.2144083
   2.7251673  16.0192753  17.4744083   2.5451673  16.7442753  17.7134083
  11.3111673  13.4812753  25.2484083  10.6111673  13.9992753  25.1924083
  11.3491673  13.1012753  24.4644083  11.2131673  13.5022753  25.1244083
   6.6181673  25.5722753  18.7724083   7.0591673  25.6522753  19.5204083
   5.8131673  25.3562753  19.0304083   6.5641673  25.5522753  18.9214083
  14.9091673  13.9972753  28.0484083  15.7641673  14.0962753  28.1934083
  14.5401673  14.5502753  28.6134083  14.9811673  14.0942753  28.1534083
   5.9371673  20.2232753  32.4254083   5.5411673  20.9972753  32.5004083
   5.5311673  19.8502753  31.7494083   5.8191673  20.2822753  32.3364083
  15.2131673  19.2772753  26.5394083  15.8791673  19.8182753  26.6994083
  14.8681673  19.5882753  25.8004083  15.2601673  19.4032753  26.4544083
  15.5261673  27.3432753  22.3464083  15.3521673  26.6892753  22.8964083
  16.2391673  27.0722753  21.9234083  15.6061673  27.2062753  22.3654083
   3.9471673  24.6422753  19.3734083   3.7031673  24.3352753  20.1534083
   3.9141673  23.9392753  18.8574083   3.9061673  24.4932753  19.4124083
   6.7661673  22.8872753  18.1164083   5.9481673  22.6192753  18.2564083
   6.7381673  23.7392753  18.3014083   6.6411673  22.9742753  18.1644083
   6.3661673  13.2002753  29.8754083   5.5021673  13.2842753  29.9554083
   6.5861673  12.6862753  30.5444083   6.2711673  13.1372753  29.9864083
  18.3841673  11.8352753  31.2044083  18.3321673  11.7912753  32.0744083
  19.0711673  11.3322753  31.0144083  18.4781673  11.7552753  31.3044083
  10.4691673  13.9482753  28.2494083   9.7321673  13.4942753  28.3624083
  11.0401673  13.5462753  28.7724083  10.4441673  13.8212753  28.3434083
  13.2011673  24.7962753  30.0374083  13.4071673  25.0972753  30.8294083
  13.1401673  25.5182753  29.5524083  13.2221673  24.9472753  30.0824083
   8.7681673  11.5292753  18.0804083   8.8461673  11.7762753  17.2474083
   8.0251673  11.9062753  18.3384083   8.6701673  11.6212753  17.9954083
  18.0131673  23.4352753  29.4954083  17.9811673  22.5732753  29.3604083
  17.3201673  23.7372753  29.0614083  17.9061673  23.3522753  29.4114083
  16.1181673  26.6952753  28.2924083  16.6451673  26.6122753  27.6014083
  15.7271673  25.9172753  28.3464083  16.1381673  26.5682753  28.1984083
   3.5861673  13.2832753  30.5234083   3.2431673  12.5162753  30.2894083
   2.8911673  13.8072753  30.5874083   3.4331673  13.2472753  30.4984083
  12.6321673  12.1392753  27.5004083  13.3021673  12.6832753  27.6274083
  12.1291673  12.5632753  26.9274083  12.6571673  12.2822753  27.4344083
  11.9911673  17.9472753  24.9934083  12.5421673  17.3402753  25.2934083
  11.5661673  18.2102753  25.7084083  12.0101673  17.8962753  25.1424083
   2.2391673  16.5972753  24.4794083   1.8711673  16.8992753  25.2104083
   2.7731673  15.9682753  24.7634083   2.2631673  16.5492753  24.6294083
  13.9611673  19.7782753  21.5554083  14.0291673  18.9282753  21.7364083
  13.1381673  19.8642753  21.2774083  13.8491673  19.6652753  21.5414083
   3.7131673  28.2722753  20.7654083   3.5681673  28.4282753  19.9194083
   4.5791673  28.3512753  20.8434083   3.8201673  28.3072753  20.6524083
   7.8801673  20.6692753  20.4934083   7.9801673  20.8082753  19.6384083
   8.6981673  20.6092753  20.7894083   8.0151673  20.6802753  20.4104083
  17.0401673  28.7332753  17.9734083  17.6771673  28.5992753  18.5544083
  16.6991673  27.9392753  17.8564083  17.0841673  28.5962753  18.0414083
  13.1151673  24.9982753  20.2954083  12.8641673  24.8702753  21.1214083
  12.7981673  24.3032753  19.8744083  13.0311673  24.8772753  20.3554083
  17.7591673  16.6562753  28.4154083  16.9261673  16.9062753  28.3434083
  17.7031673  15.8162753  28.6444083  17.6281673  16.5692753  28.4384083
   4.4001673  27.0872753  27.2424083   4.3211673  26.2772753  26.9264083
   3.9561673  27.5742753  26.6704083   4.3231673  27.0392753  27.1114083
  10.0011673  23.2062753  19.7254083  10.7181673  22.8592753  19.3694083
   9.9671673  24.0062753  19.3774083  10.1021673  23.2732753  19.6214083
   1.9721673  29.3312753  30.8234083   2.4651673  29.2752753  31.5414083
   2.1601673  28.5982753  30.3884083   2.0731673  29.2142753  30.8654083
  11.4101673  11.8472753   3.9641673  11.1651673  12.3352753   3.2841673
  12.2731673  11.7742753   3.8641673  11.5011673  11.9082753   3.8491673
  11.2191673  18.7632753   8.6351673  10.6951673  19.3592753   8.9981673
  11.6161673  18.3952753   9.3191673  11.2001673  18.7972753   8.7901673
  13.8901673  19.8302753   5.3111673  13.9701673  19.8342753   4.4421673
  13.3061673  19.1982753   5.4601673  13.8151673  19.7372753   5.2051673
   3.5971673  23.5992753   3.1701673   4.2051673  23.4292753   3.7731673
   2.8461673  23.4592753   3.5911673   3.5761673  23.5532753   3.3211673
   7.8791673  12.9342753   3.1191673   7.8091673  13.6112753   2.5731673
   8.6201673  12.5462753   2.8701673   7.9781673  12.9772753   3.0011673
   7.6021673  23.1632753  15.4131673   7.3661673  23.1602753  16.2531673
   6.8541673  23.0152753  14.9891673   7.4561673  23.1402753  15.4741673
   2.4741673  20.1592753   4.5481673   2.0121673  19.7672753   3.9211673
   3.1741673  19.6462753   4.6401673   2.5091673  20.0262753   4.4691673
   6.9821673  15.7692753   9.8951673   7.6601673  15.7872753   9.3461673
   6.9371673  14.9332753  10.1401673   7.0751673  15.6482753   9.8501673
   7.5841673  26.3552753  12.6761673   7.7221673  27.1152753  12.2691673
   8.3751673  25.9902753  12.7031673   7.7211673  26.4142753  12.6201673
   4.4751673  18.2592753   4.5711673   5.2921673  18.0722753   4.8141673
   3.9981673  17.6452753   4.9671673   4.5251673  18.1412753   4.6661673
   8.6791673  24.2402753   7.1811673   9.0271673  23.4412753   7.2111673
   9.3441673  24.7442753   6.9261673   8.8291673  24.1962753   7.1481673
   8.7361673  23.6892753   3.3921673   9.0671673  23.0452753   3.8781673
   8.9761673  23.4782753   2.5811673   8.8201673  23.5632753   3.3441673
  10.7041673  17.8202753  14.7311673   9.8561673  17.7212753  14.5531673
  10.7331673  18.5652753  15.1851673  10.5831673  17.9162753  14.7721673
   5.0721673  13.3532753   3.8371673   4.7761673  13.8542753   3.1871673
   5.9391673  13.4312753   3.7801673   5.1561673  13.4392753   3.7331673
  15.2621673  10.7802753  13.8451673  15.1041673  11.5492753  13.4631673
  14.4901673  10.5602753  14.1891673  15.1241673  10.8612753  13.8401673
   8.0511673  12.4952753   6.0601673   8.1241673  13.3552753   6.1891673
   8.0131673  12.4202753   5.1921673   8.0561673  12.6112753   5.9511673
   6.6801673  25.4742753   2.9411673   6.1011673  25.1992753   3.5331673
   7.3041673  24.8652753   2.9661673   6.6871673  25.3442753   3.0321673
  10.9911673  28.1542753   2.4531673  11.2051673  28.6812753   3.1151673
  11.7581673  27.9802753   2.0741673  11.1361673  28.2062753   2.4951673
   3.9591673  12.7372753   8.0521673   3.4381673  12.1092753   7.7441673
   4.5501673  12.3002753   8.5231673   3.9701673  12.5792753   8.0761673
   7.2651673  14.8702753  17.3501673   7.3821673  14.4162753  16.6141673
   7.5531673  15.6682753  17.1471673   7.3251673  14.9212753  17.2111673
   2.3851673  26.3002753   3.3921673   3.0411673  25.7252753   3.4071673
   2.7741673  27.0492753   3.1711673   2.5401673  26.3252753   3.3621673
  18.1181673  15.3942753   4.6541673  17.7721673  16.0722753   5.0801673
  17.4821673  14.7962753   4.6701673  17.9731673  15.4062753   4.7191673
  13.4301673  28.1642753  10.7581673  14.1741673  28.6202753  10.7481673
  13.3091673  27.9502753   9.9211673  13.5221673  28.2002753  10.6331673
   2.9981673  14.4672753  16.3341673   2.2201673  14.0772753  16.2621673
   3.4891673  14.0552753  15.7431673   2.9551673  14.3482753  16.2361673
   3.2031673  24.7872753   6.8921673   3.6261673  24.4312753   6.2181673
   3.5271673  24.3652753   7.5841673   3.3131673  24.6722753   6.8951673
   6.4341673  27.6392753   6.1881673   7.2781673  27.7432753   5.9931673
   6.1371673  28.4572753   6.2561673   6.5151673  27.7752753   6.1691673
   9.6471673  12.1102753  15.5021673   9.8251673  11.3012753  15.2271673
   9.5041673  12.5512753  14.7631673   9.6521673  12.0562753  15.3521673
  10.2411673  17.0362753   4.2751673  10.5281673  16.8042753   3.4851673
  10.9731673  17.1152753   4.7441673  10.3911673  17.0132753   4.2281673
   5.4321673  28.8582753  11.9281673   5.7241673  28.7912753  12.7481673
   4.8061673  28.2532753  11.8831673   5.3831673  28.7592753  12.0431673
  17.7931673  13.7172753  10.0231673  18.5501673  13.7892753   9.5951673
  17.8561673  12.9442753  10.4221673  17.9141673  13.6142753  10.0181673
  12.6841673  25.3492753  14.4621673  12.6501673  25.7312753  15.2461673
  13.5381673  25.3072753  14.2911673  12.8051673  25.3992753  14.5531673
   3.4251673  27.0202753  11.0501673   2.7271673  26.5122753  11.1761673
   3.6851673  26.8152753  10.2421673   3.3601673  26.9152753  10.9491673
  11.1361673  28.5132753  11.9601673  11.9041673  28.4332753  11.5541673
  10.5531673  28.3922753  11.3221673  11.1631673  28.4832753  11.8061673
  17.4131673  29.1162753   4.8611673  16.9581673  29.8332753   5.0621673
  16.7991673  28.5452753   4.6191673  17.2551673  29.1382753   4.8551673
   9.1851673  15.1262753   5.9931673   9.2591673  15.6942753   5.3351673
   9.3061673  15.6182753   6.7031673   9.2131673  15.2832753   6.0011673
  14.4101673  24.9612753   4.4051673  15.1111673  24.4792753   4.5941673
  13.7501673  24.3922753   4.4501673  14.4161673  24.8062753   4.4391673
   4.7861673  25.8712753  13.6171673   5.6271673  25.9342753  13.3951673
   4.7491673  26.2682753  14.3931673   4.9051673  25.9392753  13.6991673
   3.7931673  10.9492753   4.3411673   4.3291673  11.6372753   4.3311673
   3.7961673  10.6752753   3.5131673   3.8721673  11.0102753   4.2171673
   6.7491673  21.3822753   8.3661673   6.9211673  21.1722753   9.1951673
   6.0941673  20.8482753   8.1501673   6.6781673  21.2722753   8.4571673
  12.9771673  15.2962753  11.8811673  12.8821673  15.6152753  12.6871673
  12.3841673  14.6572753  11.8431673  12.8751673  15.2482753  11.9951673
   7.4991673  21.3202753  10.9561673   7.5521673  22.1672753  11.1581673
   7.2141673  20.9502753  11.6931673   7.4651673  21.3902753  11.0941673
  13.6761673  22.0152753  10.0861673  13.1621673  21.6032753  10.6571673
  13.5501673  22.8592753  10.2671673  13.5821673  22.0792753  10.1971673
  14.2331673  11.2402753   4.7171673  14.2821673  10.9222753   5.5281673
  14.5561673  10.5962753   4.2241673  14.2881673  11.0982753   4.7641673
  16.6971673  15.4762753  13.0251673  17.4691673  15.2512753  13.3621673
  16.2221673  15.6932753  13.7251673  16.7411673  15.4752753  13.1781673
   4.2411673  14.7592753   5.9951673   4.5131673  14.3292753   5.2871673
   4.0651673  14.1232753   6.5661673   4.2551673  14.6022753   5.9751673
   4.0651673  22.1862753   5.5441673   4.9161673  22.1062753   5.3711673
   3.7081673  21.5042753   5.1321673   4.1381673  22.0732753   5.4571673
   2.8321673  28.9112753   6.7811673   2.1591673  28.4132753   6.5361673
   3.2351673  29.0962753   6.0301673   2.7921673  28.8652753   6.6341673
   2.3821673  15.8612753   9.0771673   3.2251673  16.0812753   9.0341673
   1.9931673  16.4342753   8.5461673   2.4491673  15.9782753   8.9921673
  19.1631673  26.9632753  14.4671673  18.4811673  27.2732753  14.0201673
  18.7941673  26.5052753  15.1121673  19.0071673  26.9412753  14.4961673
   6.4331673  22.1932753   3.7791673   7.1461673  22.6882753   3.8691673
   6.6551673  21.6262753   3.1531673   6.5711673  22.1822753   3.7001673
   8.2361673  17.5462753  17.1951673   7.7521673  18.1232753  17.6371673
   8.2081673  17.8412753  16.3741673   8.1601673  17.6752753  17.1391673
  19.3341673  18.2302753  11.8071673  19.5491673  17.4302753  11.5311673
  18.4841673  18.2902753  11.6181673  19.2401673  18.1212753  11.7381673
  10.9561673  25.8962753   6.1061673  10.4331673  26.5302753   5.8131673
  11.2661673  25.5322753   5.3771673  10.9241673  25.9362753   5.9551673
   5.0311673  23.6842753   8.8661673   5.4981673  23.9732753   9.5441673
   5.6031673  23.2062753   8.4121673   5.1851673  23.6562753   8.8991673
  13.4671673  15.6982753   6.6031673  13.8111673  15.8502753   7.3901673
  13.0141673  14.9602753   6.7161673  13.4511673  15.6112753   6.7361673
  16.9971673  27.3452753  12.5571673  16.3261673  27.8592753  12.7751673
  17.0601673  27.4452753  11.6931673  16.9071673  27.4362753  12.4621673
   5.6811673  24.8702753   5.6921673   5.8071673  25.7132753   5.8791673
   6.3491673  24.4712753   6.0881673   5.7991673  24.9362753   5.7781673
   3.8111673  18.3532753  15.5541673   3.2751673  17.8472753  16.0221673
   3.8311673  17.9632753  14.7741673   3.7341673  18.2202753  15.5081673
   4.4631673  19.5802753   7.2931673   3.6821673  19.5212753   6.9101673
   4.5351673  18.8282753   7.7301673   4.3581673  19.4612753   7.3011673
   4.8931673  19.3172753  10.7611673   4.9181673  18.6422753  10.2101673
   4.2471673  19.8132753  10.4491673   4.8021673  19.2902753  10.6341673
  14.7881673  17.0302753   9.1571673  14.1261673  17.3582753   9.6201673
  14.9751673  17.6642753   8.5881673  14.7181673  17.1722753   9.1411673
   8.9931673  28.0942753  10.1531673   8.7161673  27.4532753   9.6301673
   8.7851673  28.8202753   9.7151673   8.9221673  28.1072753  10.0111673
  11.4331673  12.9362753  12.5861673  11.5821673  12.1112753  12.3431673
  11.8121673  12.9912753  13.3701673  11.5111673  12.8222753  12.6661673
  12.9811673  14.9992753   2.6681673  13.4711673  15.7162753   2.5911673
  12.1911673  15.2602753   2.4051673  12.9371673  15.1432753   2.6181673
   2.6921673  20.6722753  16.3201673   2.6551673  21.1732753  15.6061673
   3.0231673  19.9202753  16.0251673   2.7351673  20.6342753  16.1711673
  14.2951673  22.8772753  14.5781673  14.7791673  23.5952753  14.6761673
  14.6891673  22.4502753  13.9271673  14.4251673  22.9202753  14.4961673
   8.5911673  25.7222753  15.7551673   8.9451673  25.5442753  16.5321673
   8.1551673  24.9932753  15.5561673   8.5791673  25.5882753  15.8411673
   9.5631673  16.4692753   8.3931673  10.0431673  17.1682753   8.6011673
   9.9361673  15.8222753   8.8441673   9.6891673  16.4772753   8.4901673
  16.7241673  23.5082753   4.6481673  17.0801673  23.1582753   5.3631673
  16.7161673  22.8472753   4.0781673  16.7761673  23.3582753   4.6691673
  12.7691673  26.5742753   8.4921673  12.1661673  26.2782753   7.9351673
  13.3141673  27.0262753   7.9831673  12.7601673  26.5972753   8.3341673
  12.7821673  23.4252753   7.8921673  11.9851673  23.6492753   8.1661673
  13.0401673  22.8312753   8.4771673  12.7021673  23.3702753   8.0191673
   6.6741673  28.2372753   2.3401673   6.5271673  27.4612753   2.7111673
   7.3631673  28.0902753   1.8251673   6.7541673  28.1002753   2.3191673
  16.0421673  21.4232753  12.7381673  16.0971673  21.5482753  11.8761673
  16.7951673  21.7432753  13.0401673  16.1611673  21.4882753  12.6551673
  12.2331673  26.7722753  17.0151673  12.3971673  27.0552753  17.8241673
  12.4961673  27.4332753  16.5101673  12.2961673  26.9122753  17.0601673
  17.0741673  11.7212753  15.7251673  16.4371673  11.3212753  15.2831673
  17.1001673  11.2902753  16.4831673  16.9841673  11.5992753  15.7711673
  11.7731673  21.2292753  12.3381673  11.6181673  21.8392753  12.9421673
  12.3071673  20.6712753  12.7441673  11.8291673  21.2372753  12.4871673
  10.1571673  19.6292753   2.9961673  10.2161673  20.2792753   3.5751673
   9.9681673  18.9332753   3.4871673  10.1381673  19.6222753   3.1541673
  15.3831673  23.9582753   8.8651673  14.9041673  24.2562753   8.1991673
  15.0271673  23.1822753   9.0431673  15.2601673  23.8872753   8.7931673
   9.3801673  21.6762753   7.4271673   8.5331673  21.4822753   7.5081673
   9.7041673  21.5112753   8.2201673   9.3021673  21.6232753   7.5561673
   3.2281673  21.3692753   9.7431673   3.9501673  21.8572753   9.7061673
   2.9581673  21.3392753   8.9141673   3.2951673  21.4372753   9.6151673
   6.4581673  16.5402753   6.4781673   7.3041673  16.3502753   6.5761673
   6.0881673  15.7632753   6.3401673   6.5281673  16.3972753   6.4721673
  16.3141673  20.9002753   9.9841673  16.3071673  20.1242753  10.3821673
  15.4731673  21.1342753   9.9771673  16.1891673  20.8202753  10.0421673
   2.6231673  22.4212753  14.0211673   2.2021673  21.9032753  13.4601673
   2.2711673  23.2072753  13.8781673   2.5091673  22.4612753  13.9171673
  17.5701673  20.9712753   7.4211673  17.2841673  21.3722753   8.1411673
  18.4301673  20.9092753   7.5481673  17.6551673  21.0212753   7.5461673
  18.7011673  26.6042753   7.9501673  18.9911673  26.8612753   7.1691673
  19.3961673  26.7002753   8.4691673  18.8471673  26.6562753   7.9111673
  15.7881673  17.0412753   5.5911673  15.0431673  16.7182753   5.9091673
  15.7901673  17.8672753   5.8711673  15.6781673  17.1152753   5.6791673
   7.3621673  24.2322753  10.6391673   7.0641673  24.8242753  11.2061673
   7.4171673  24.6742753   9.8901673   7.3261673  24.3852753  10.6121673
   5.3411673  23.1822753  14.0371673   4.5351673  22.8922753  14.2041673
   5.2521673  24.0502753  14.0431673   5.2091673  23.2672753  14.0621673
  14.7001673  13.3712753  13.0521673  15.4441673  13.8232753  12.9891673
  14.1341673  13.8412753  12.5831673  14.7271673  13.5082753  12.9741673
   9.8781673  20.6552753  10.1301673  10.3541673  21.0292753  10.7581673
   9.0551673  20.7892753  10.3891673   9.8271673  20.7302753  10.2611673
   6.5881673  16.2582753  12.8711673   6.7491673  15.5142753  13.2981673
   6.5431673  16.0092753  12.0361673   6.6051673  16.1112753  12.8111673
   9.1421673  28.0482753   5.3581673   9.6881673  28.7272753   5.4121673
   8.7921673  28.1302753   4.5631673   9.1711673  28.1612753   5.2481673
  15.9851673  11.3512753  10.7221673  15.7051673  12.1762753  10.6781673
  16.7011673  11.4042753  11.2181673  16.0501673  11.4812753  10.7891673
   8.3401673  12.0662753  12.7511673   9.0451673  12.3862753  12.3491673
   8.5811673  11.2592753  12.9781673   8.4791673  11.9942753  12.7251673
   7.3251673  26.2762753   8.7471673   6.7011673  26.8582753   8.5651673
   7.5731673  25.9902753   7.9611673   7.2691673  26.3202753   8.6041673
  11.6341673  22.9102753  15.7361673  12.3911673  23.1962753  15.4101673
  11.0871673  22.9622753  15.0581673  11.6651673  22.9602753  15.5871673
  15.5431673  25.4602753  14.2401673  15.8891673  25.7302753  14.9941673
  15.8371673  26.0422753  13.6601673  15.6381673  25.5862753  14.2661673
   4.8491673  17.1192753   8.8121673   5.2891673  17.0162753   8.0661673
   5.3941673  16.8062753   9.4171673   4.9941673  17.0582753   8.7911673
  12.5531673  17.7582753  10.7021673  12.8551673  18.1782753  11.4051673
  12.5891673  16.9182753  10.9341673  12.6031673  17.6962753  10.8401673
   9.9781673  27.9252753  14.6271673  10.4561673  27.3252753  14.2111673
   9.6271673  27.4822753  15.2921673   9.9971673  27.7712753  14.6641673
  15.1011673  17.2052753   2.9541673  15.3081673  17.0042753   3.7781673
  15.8571673  17.4732753   2.6121673  15.2431673  17.2152753   3.0251673
   8.3961673  12.1042753   8.8591673   7.5701673  11.9552753   9.0961673
   8.3561673  12.1392753   7.9881673   8.2681673  12.0872753   8.7651673
  16.1231673  13.2882753   4.4281673  15.4091673  12.8172753   4.5991673
  15.9611673  13.6292753   3.6421673  15.9941673  13.2692753   4.3371673
  16.5661673  21.2322753   2.8081673  17.0421673  20.5032753   2.7601673
  15.7451673  20.9462753   2.7321673  16.5151673  21.0822753   2.7891673
  10.0371673  23.1442753  13.6471673   9.2421673  23.0802753  13.9981673
  10.1081673  23.9912753  13.4521673   9.9301673  23.2592753  13.6701673
   5.8671673  29.3512753   8.9641673   5.8781673  29.4102753   9.8341673
   5.4421673  28.6042753   8.8141673   5.8061673  29.2492753   9.0701673
  12.7821673  22.3992753   5.1631673  12.8581673  22.7402753   5.9621673
  12.9511673  21.5522753   5.2841673  12.8181673  22.3242753   5.2991673
  10.3041673  21.6732753   4.7281673  10.0061673  21.3582753   5.4851673
  10.9991673  22.1462753   4.9631673  10.3631673  21.6962753   4.8751673
  10.5261673  25.7912753  12.7551673  11.2131673  25.6772753  13.2801673
  10.6601673  26.5822753  12.4111673  10.6471673  25.8912753  12.7821673
  13.2151673  19.0652753  13.1421673  12.9601673  18.3462753  13.5641673
  14.0361673  19.1812753  13.4121673  13.2991673  18.9762753  13.2441673
   2.6311673  28.8492753  14.4061673   1.9771673  28.2802753  14.5041673
   2.2561673  29.6222753  14.5571673   2.4791673  28.8792753  14.4431673
  11.1491673  20.2552753  16.3291673  11.4721673  20.9412753  15.8971673
  10.4451673  20.5782753  16.7311673  11.0921673  20.4042753  16.3241673
  14.2331673  28.6292753   7.2581673  13.7821673  29.2722753   7.6371673
  14.9411673  28.5502753   7.7631673  14.2711673  28.7122753   7.3891673
  10.9341673  23.7192753  10.1881673  10.2401673  24.1212753  10.5311673
  11.6111673  24.1522753  10.5271673  10.9311673  23.8422753  10.2891673
  16.3111673  26.3122753  16.7681673  17.0871673  25.9222753  16.8511673
  15.8421673  25.9762753  17.4231673  16.3561673  26.2052753  16.8771673
   4.0021673  17.2572753  12.5351673   4.3771673  17.8762753  12.0481673
   4.6761673  16.7832753  12.8201673   4.1571673  17.2792753  12.5051673
   1.7771673  15.7052753  11.8101673   1.8541673  15.5362753  10.9571673
   2.5231673  16.1112753  12.0071673   1.8981673  15.7402753  11.7131673
   4.3311673  13.1152753  14.2211673   4.2501673  12.2712753  14.4271673
   4.0171673  13.1592753  13.4081673   4.2731673  12.9972753  14.1311673
  11.2561673  25.3102753   3.3571673  11.0511673  26.1432753   3.1981673
  10.4811673  24.9282753   3.4791673  11.1111673  25.3772753   3.3521673
  16.4381673  18.4912753  11.6061673  16.4361673  17.6282753  11.7301673
  16.5051673  18.8152753  12.4131673  16.4481673  18.4112753  11.7431673
  12.3171673  13.2912753  15.3881673  12.4091673  14.0032753  15.8821673
  11.6801673  12.8462753  15.7851673  12.2361673  13.3302753  15.5201673
  11.3111673  13.4812753   6.2421673  10.6111673  13.9992753   6.1861673
  11.3491673  13.1012753   5.4581673  11.2131673  13.5022753   6.1181673
  14.9091673  13.9972753   9.0421673  15.7641673  14.0962753   9.1871673
  14.5401673  14.5502753   9.6071673  14.9811673  14.0942753   9.1471673
   5.9371673  20.2232753  13.4191673   5.5411673  20.9972753  13.4941673
   5.5311673  19.8502753  12.7431673   5.8191673  20.2822753  13.3301673
  15.2131673  19.2772753   7.5331673  15.8791673  19.8182753   7.6931673
  14.8681673  19.5882753   6.7941673  15.2601673  19.4032753   7.4481673
  15.5261673  27.3432753   3.3401673  15.3521673  26.6892753   3.8901673
  16.2391673  27.0722753   2.9171673  15.6061673  27.2062753   3.3591673
   6.3661673  13.2002753  10.8691673   5.5021673  13.2842753  10.9491673
   6.5861673  12.6862753  11.5381673   6.2711673  13.1372753  10.9801673
  18.3841673  11.8352753  12.1981673  18.3321673  11.7912753  13.0681673
  19.0711673  11.3322753  12.0081673  18.4781673  11.7552753  12.2981673
  10.4691673  13.9482753   9.2431673   9.7321673  13.4942753   9.3561673
  11.0401673  13.5462753   9.7661673  10.4441673  13.8212753   9.3371673
  13.2011673  24.7962753  11.0311673  13.4071673  25.0972753  11.8231673
  13.1401673  25.5182753  10.5461673  13.2221673  24.9472753  11.0761673
  12.7351673  29.0102753  15.2771673  11.9821673  28.9922753  14.8361673
  12.9031673  29.8622753  15.3611673  12.6491673  29.1332753  15.2241673
   7.9721673  18.2772753  14.4471673   7.6501673  17.7012753  13.8771673
   7.6131673  19.0322753  14.2011673   7.8721673  18.3032753  14.3271673
  18.0131673  23.4352753  10.4891673  17.9811673  22.5732753  10.3541673
  17.3201673  23.7372753  10.0551673  17.9061673  23.3522753  10.4051673
   6.4071673  28.6332753  14.6951673   6.4481673  28.7592753  15.5581673
   7.0581673  28.0732753  14.5391673   6.5091673  28.5692753  14.8001673
  16.1181673  26.6952753   9.2861673  16.6451673  26.6122753   8.5951673
  15.7271673  25.9172753   9.3401673  16.1381673  26.5682753   9.1921673
   3.5861673  13.2832753  11.5171673   3.2431673  12.5162753  11.2831673
   2.8911673  13.8072753  11.5811673   3.4331673  13.2472753  11.4921673
  12.6321673  12.1392753   8.4941673  13.3021673  12.6832753   8.6211673
  12.1291673  12.5632753   7.9211673  12.6571673  12.2822753   8.4281673
   4.0001673  27.0162753  16.0551673   4.5951673  27.4472753  16.5271673
   3.6361673  27.6402753  15.5661673   4.0341673  27.1722753  16.0521673
  11.9911673  17.9472753   5.9871673  12.5421673  17.3402753   6.2871673
  11.5661673  18.2102753   6.7021673  12.0101673  17.8962753   6.1361673
   2.2391673  16.5972753   5.4731673   1.8711673  16.8992753   6.2041673
   2.7731673  15.9682753   5.7571673   2.2631673  16.5492753   5.6231673
  13.9611673  19.7782753   2.5491673  14.0291673  18.9282753   2.7301673
  13.1381673  19.8642753   2.2711673  13.8491673  19.6652753   2.5351673
  17.7591673  16.6562753   9.4091673  16.9261673  16.9062753   9.3371673
  17.7031673  15.8162753   9.6381673  17.6281673  16.5692753   9.4321673
   7.0191673  13.6442753  14.6031673   7.2531673  13.0682753  13.9901673
   6.1771673  13.4632753  14.7441673   6.9291673  13.5322753  14.5331673
   4.4001673  27.0872753   8.2361673   4.3211673  26.2772753   7.9201673
   3.9561673  27.5742753   7.6641673   4.3231673  27.0392753   8.1051673
   1.9721673  29.3312753  11.8171673   2.4651673  29.2752753  12.5351673
   2.1601673  28.5982753  11.3821673   2.0731673  29.2142753  11.8591673
  17.3631673   7.7261673  20.6124083  18.0641673   7.2071673  20.6084083
  16.7761673   7.2811673  20.1434083  17.3801673   7.5831673  20.5424083
   3.9701673   3.4801673  18.2764083   3.5781673   3.1091673  17.5904083
   3.8901673   2.8821673  18.9054083   3.9001673   3.3371673  18.2674083
   3.5971673   5.1211673  22.1764083   4.2051673   4.9511673  22.7794083
   2.8461673   4.9811673  22.5974083   3.5761673   5.0751673  22.3274083
   2.4881673   8.2121673  18.2534083   2.9551673   8.2961673  17.5214083
   2.9431673   7.6341673  18.7224083   2.6241673   8.1391673  18.2144083
   7.5841673   7.8771673  31.6824083   7.7221673   8.6371673  31.2754083
   8.3751673   7.5121673  31.7094083   7.7211673   7.9361673  31.6264083
   8.6791673   5.7621673  26.1874083   9.0271673   4.9631673  26.2174083
   9.3441673   6.2661673  25.9324083   8.8291673   5.7181673  26.1544083
   8.7361673   5.2111673  22.3984083   9.0671673   4.5671673  22.8844083
   8.9761673   5.0001673  21.5874083   8.8201673   5.0851673  22.3504083
   6.6801673   6.9961673  21.9474083   6.1011673   6.7211673  22.5394083
   7.3041673   6.3871673  21.9724083   6.6871673   6.8661673  22.0384083
  12.8231673   9.2841673  19.4694083  13.5501673   9.7561673  19.5714083
  13.0521673   8.4901673  19.7494083  12.9651673   9.2371673  19.5264083
  10.9911673   9.6761673  21.4594083  11.2051673  10.2031673  22.1214083
  11.7581673   9.5021673  21.0804083  11.1361673   9.7281673  21.5014083
   2.3851673   7.8221673  22.3984083   3.0411673   7.2471673  22.4134083
   2.7741673   8.5711673  22.1774083   2.5401673   7.8471673  22.3684083
  13.4301673   9.6861673  29.7644083  14.1741673  10.1421673  29.7544083
  13.3091673   9.4721673  28.9274083  13.5221673   9.7221673  29.6394083
   3.2031673   6.3091673  25.8984083   3.6261673   5.9531673  25.2244083
   3.5271673   5.8871673  26.5904083   3.3131673   6.1941673  25.9014083
   6.4341673   9.1611673  25.1944083   7.2781673   9.2651673  24.9994083
   6.1371673   9.9791673  25.2624083   6.5151673   9.2971673  25.1754083
  15.0041673  10.8711673  19.8694083  15.6691673  10.7231673  19.3244083
  15.3641673  10.7881673  20.6594083  15.1561673  10.8371673  19.9054083
   5.4321673  10.3801673  30.9344083   5.7241673  10.3131673  31.7544083
   4.8061673   9.7751673  30.8894083   5.3831673  10.2811673  31.0494083
   9.8221673   7.0681673  18.2184083   9.6411673   7.6131673  18.8754083
  10.5881673   7.3581673  17.9174083   9.9081673   7.1921673  18.2714083
   3.4251673   8.5421673  30.0564083   2.7271673   8.0341673  30.1824083
   3.6851673   8.3371673  29.2484083   3.3601673   8.4371673  29.9554083
  11.1361673  10.0351673  30.9664083  11.9041673   9.9551673  30.5604083
  10.5531673   9.9141673  30.3284083  11.1631673  10.0051673  30.8124083
  17.4131673  10.6381673  23.8674083  16.9581673  11.3551673  24.0684083
  16.7991673  10.0671673  23.6254083  17.2551673  10.6601673  23.8614083
  14.4101673   6.4831673  23.4114083  15.1111673   6.0011673  23.6004083
  13.7501673   5.9141673  23.4564083  14.4161673   6.3281673  23.4454083
   6.7491673   2.9041673  27.3724083   6.9211673   2.6941673  28.2014083
   6.0941673   2.3701673  27.1564083   6.6781673   2.7941673  27.4634083
   7.4991673   2.8421673  29.9624083   7.5521673   3.6891673  30.1644083
   7.2141673   2.4721673  30.6994083   7.4651673   2.9121673  30.1004083
  13.6761673   3.5371673  29.0924083  13.1621673   3.1251673  29.6634083
  13.5501673   4.3811673  29.2734083  13.5821673   3.6011673  29.2034083
  16.9291673   3.9761673  19.2194083  17.0481673   3.6891673  20.0344083
  17.7361673   3.9971673  18.8894083  17.0651673   3.9371673  19.2914083
   4.0651673   3.7081673  24.5504083   4.9161673   3.6281673  24.3774083
   3.7081673   3.0261673  24.1384083   4.1381673   3.5951673  24.4634083
   2.8321673  10.4331673  25.7874083   2.1591673   9.9351673  25.5424083
   3.2351673  10.6181673  25.0364083   2.7921673  10.3871673  25.6404083
   6.4331673   3.7151673  22.7854083   7.1461673   4.2101673  22.8754083
   6.6551673   3.1481673  22.1594083   6.5711673   3.7041673  22.7064083
  10.9561673   7.4181673  25.1124083  10.4331673   8.0521673  24.8194083
  11.2661673   7.0541673  24.3834083  10.9241673   7.4581673  24.9614083
   5.0311673   5.2061673  27.8724083   5.4981673   5.4951673  28.5504083
   5.6031673   4.7281673  27.4184083   5.1851673   5.1781673  27.9054083
  16.9971673   8.8671673  31.5634083  16.3261673   9.3811673  31.7814083
  17.0601673   8.9671673  30.6994083  16.9071673   8.9581673  31.4684083
   5.6811673   6.3921673  24.6984083   5.8071673   7.2351673  24.8854083
   6.3491673   5.9931673  25.0944083   5.7991673   6.4581673  24.7844083
   8.9931673   9.6161673  29.1594083   8.7161673   8.9751673  28.6364083
   8.7851673  10.3421673  28.7214083   8.9221673   9.6291673  29.0174083
  16.7241673   5.0301673  23.6544083  17.0801673   4.6801673  24.3694083
  16.7161673   4.3691673  23.0844083  16.7761673   4.8801673  23.6754083
  12.7691673   8.0961673  27.4984083  12.1661673   7.8001673  26.9414083
  13.3141673   8.5481673  26.9894083  12.7601673   8.1191673  27.3404083
  12.7821673   4.9471673  26.8984083  11.9851673   5.1711673  27.1724083
  13.0401673   4.3531673  27.4834083  12.7021673   4.8921673  27.0254083
   6.6741673   9.7591673  21.3464083   6.5271673   8.9831673  21.7174083
   7.3631673   9.6121673  20.8314083   6.7541673   9.6221673  21.3254083
   8.9661673   9.2751673  19.7484083   9.5881673   9.4381673  20.3384083
   9.0021673   9.9661673  19.2164083   9.0631673   9.4011673  19.7574083
  16.0421673   2.9451673  31.7444083  16.0971673   3.0701673  30.8824083
  16.7951673   3.2651673  32.0464083  16.1611673   3.0101673  31.6614083
  11.7731673   2.7511673  31.3444083  11.6181673   3.3611673  31.9484083
  12.3071673   2.1931673  31.7504083  11.8291673   2.7591673  31.4934083
  15.3831673   5.4801673  27.8714083  14.9041673   5.7781673  27.2054083
  15.0271673   4.7041673  28.0494083  15.2601673   5.4091673  27.7994083
   9.3801673   3.1981673  26.4334083   8.5331673   3.0041673  26.5144083
   9.7041673   3.0331673  27.2264083   9.3021673   3.1451673  26.5624083
   6.1321673   9.9281673  17.3194083   6.5711673   9.2311673  17.6074083
   6.3391673  10.5521673  17.8924083   6.2281673   9.9171673  17.4464083
   3.2281673   2.8911673  28.7494083   3.9501673   3.3791673  28.7124083
   2.9581673   2.8611673  27.9204083   3.2951673   2.9591673  28.6214083
  19.0751673   9.6461673  19.8114083  19.7691673   9.1791673  19.5634083
  18.5361673   9.0481673  20.1484083  19.0981673   9.4881673  19.8244083
  17.5701673   2.4931673  26.4274083  17.2841673   2.8941673  27.1474083
  18.4301673   2.4311673  26.5544083  17.6551673   2.5431673  26.5524083
  18.7011673   8.1261673  26.9564083  18.9911673   8.3831673  26.1754083
  19.3961673   8.2221673  27.4754083  18.8471673   8.1781673  26.9174083
  15.3061673   6.7291673  18.9384083  15.6401673   5.9231673  18.9734083
  14.5511673   6.6571673  19.3684083  15.2441673   6.5991673  19.0074083
  18.2281673   4.5231673  32.3494083  18.8561673   3.9741673  32.0934083
  18.1671673   5.0881673  31.6874083  18.3121673   4.5261673  32.2134083
  12.6801673   4.6041673  18.3414083  13.3641673   4.0901673  18.1724083
  12.2631673   4.6501673  17.5764083  12.7191673   4.5351673  18.2034083
   7.3621673   5.7541673  29.6454083   7.0641673   6.3461673  30.2124083
   7.4171673   6.1961673  28.8964083   7.3261673   5.9071673  29.6184083
   9.8781673   2.1771673  29.1364083  10.3541673   2.5511673  29.7644083
   9.0551673   2.3111673  29.3954083   9.8271673   2.2521673  29.2674083
   9.1421673   9.5701673  24.3644083   9.6881673  10.2491673  24.4184083
   8.7921673   9.6521673  23.5694083   9.1711673   9.6831673  24.2544083
   7.3251673   7.7981673  27.7534083   6.7011673   8.3801673  27.5714083
   7.5731673   7.5121673  26.9674083   7.2691673   7.8421673  27.6104083
   8.9191673   2.5741673  17.6684083   8.1141673   2.3971673  17.3834083
   8.8861673   3.4251673  17.8604083   8.7951673   2.6731673  17.6554083
  16.5661673   2.7541673  21.8144083  17.0421673   2.0251673  21.7664083
  15.7451673   2.4681673  21.7384083  16.5151673   2.6041673  21.7954083
   5.8671673  10.8731673  27.9704083   5.8781673  10.9321673  28.8404083
   5.4421673  10.1261673  27.8204083   5.8061673  10.7711673  28.0764083
  12.7821673   3.9211673  24.1694083  12.8581673   4.2621673  24.9684083
  12.9511673   3.0741673  24.2904083  12.8181673   3.8461673  24.3054083
  10.3041673   3.1951673  23.7344083  10.0061673   2.8801673  24.4914083
  10.9991673   3.6681673  23.9694083  10.3631673   3.2181673  23.8814083
  10.5261673   7.3131673  31.7614083  11.2131673   7.1991673  32.2864083
  10.6601673   8.1041673  31.4174083  10.6471673   7.4131673  31.7884083
  14.2331673  10.1511673  26.2644083  13.7821673  10.7941673  26.6434083
  14.9411673  10.0721673  26.7694083  14.2711673  10.2341673  26.3954083
  10.9341673   5.2411673  29.1944083  10.2401673   5.6431673  29.5374083
  11.6111673   5.6741673  29.5334083  10.9311673   5.3641673  29.2954083
  11.2561673   6.8321673  22.3634083  11.0511673   7.6651673  22.2044083
  10.4811673   6.4501673  22.4854083  11.1111673   6.8991673  22.3584083
   6.6181673   7.0941673  18.7724083   7.0591673   7.1741673  19.5204083
   5.8131673   6.8781673  19.0304083   6.5641673   7.0741673  18.9214083
  15.5261673   8.8651673  22.3464083  15.3521673   8.2111673  22.8964083
  16.2391673   8.5941673  21.9234083  15.6061673   8.7281673  22.3654083
   3.9471673   6.1641673  19.3734083   3.7031673   5.8571673  20.1534083
   3.9141673   5.4611673  18.8574083   3.9061673   6.0151673  19.4124083
   6.7661673   4.4091673  18.1164083   5.9481673   4.1411673  18.2564083
   6.7381673   5.2611673  18.3014083   6.6411673   4.4961673  18.1644083
  13.2011673   6.3181673  30.0374083  13.4071673   6.6191673  30.8294083
  13.1401673   7.0401673  29.5524083  13.2221673   6.4691673  30.0824083
  18.0131673   4.9571673  29.4954083  17.9811673   4.0951673  29.3604083
  17.3201673   5.2591673  29.0614083  17.9061673   4.8741673  29.4114083
  16.1181673   8.2171673  28.2924083  16.6451673   8.1341673  27.6014083
  15.7271673   7.4391673  28.3464083  16.1381673   8.0901673  28.1984083
   3.7131673   9.7941673  20.7654083   3.5681673   9.9501673  19.9194083
   4.5791673   9.8731673  20.8434083   3.8201673   9.8291673  20.6524083
   7.8801673   2.1911673  20.4934083   7.9801673   2.3301673  19.6384083
   8.6981673   2.1311673  20.7894083   8.0151673   2.2021673  20.4104083
  17.0401673  10.2551673  17.9734083  17.6771673  10.1211673  18.5544083
  16.6991673   9.4611673  17.8564083  17.0841673  10.1181673  18.0414083
  13.1151673   6.5201673  20.2954083  12.8641673   6.3921673  21.1214083
  12.7981673   5.8251673  19.8744083  13.0311673   6.3991673  20.3554083
   4.4001673   8.6091673  27.2424083   4.3211673   7.7991673  26.9264083
   3.9561673   9.0961673  26.6704083   4.3231673   8.5611673  27.1114083
  10.0011673   4.7281673  19.7254083  10.7181673   4.3811673  19.3694083
   9.9671673   5.5281673  19.3774083  10.1021673   4.7951673  19.6214083
   1.9721673  10.8531673  30.8234083   2.4651673  10.7971673  31.5414083
   2.1601673  10.1201673  30.3884083   2.0731673  10.7361673  30.8654083
   3.5971673   5.1211673   3.1701673   4.2051673   4.9511673   3.7731673
   2.8461673   4.9811673   3.5911673   3.5761673   5.0751673   3.3211673
   7.6021673   4.6851673  15.4131673   7.3661673   4.6821673  16.2531673
   6.8541673   4.5371673  14.9891673   7.4561673   4.6621673  15.4741673
   7.5841673   7.8771673  12.6761673   7.7221673   8.6371673  12.2691673
   8.3751673   7.5121673  12.7031673   7.7211673   7.9361673  12.6201673
   8.6791673   5.7621673   7.1811673   9.0271673   4.9631673   7.2111673
   9.3441673   6.2661673   6.9261673   8.8291673   5.7181673   7.1481673
   8.7361673   5.2111673   3.3921673   9.0671673   4.5671673   3.8781673
   8.9761673   5.0001673   2.5811673   8.8201673   5.0851673   3.3441673
   6.6801673   6.9961673   2.9411673   6.1011673   6.7211673   3.5331673
   7.3041673   6.3871673   2.9661673   6.6871673   6.8661673   3.0321673
  10.9911673   9.6761673   2.4531673  11.2051673  10.2031673   3.1151673
  11.7581673   9.5021673   2.0741673  11.1361673   9.7281673   2.4951673
   2.3851673   7.8221673   3.3921673   3.0411673   7.2471673   3.4071673
   2.7741673   8.5711673   3.1711673   2.5401673   7.8471673   3.3621673
  13.4301673   9.6861673  10.7581673  14.1741673  10.1421673  10.7481673
  13.3091673   9.4721673   9.9211673  13.5221673   9.7221673  10.6331673
   3.2031673   6.3091673   6.8921673   3.6261673   5.9531673   6.2181673
   3.5271673   5.8871673   7.5841673   3.3131673   6.1941673   6.8951673
   6.4341673   9.1611673   6.1881673   7.2781673   9.2651673   5.9931673
   6.1371673   9.9791673   6.2561673   6.5151673   9.2971673   6.1691673
   5.4321673  10.3801673  11.9281673   5.7241673  10.3131673  12.7481673
   4.8061673   9.7751673  11.8831673   5.3831673  10.2811673  12.0431673
  12.6841673   6.8711673  14.4621673  12.6501673   7.2531673  15.2461673
  13.5381673   6.8291673  14.2911673  12.8051673   6.9211673  14.5531673
   3.4251673   8.5421673  11.0501673   2.7271673   8.0341673  11.1761673
   3.6851673   8.3371673  10.2421673   3.3601673   8.4371673  10.9491673
  11.1361673  10.0351673  11.9601673  11.9041673   9.9551673  11.5541673
  10.5531673   9.9141673  11.3221673  11.1631673  10.0051673  11.8061673
  17.4131673  10.6381673   4.8611673  16.9581673  11.3551673   5.0621673
  16.7991673  10.0671673   4.6191673  17.2551673  10.6601673   4.8551673
  14.4101673   6.4831673   4.4051673  15.1111673   6.0011673   4.5941673
  13.7501673   5.9141673   4.4501673  14.4161673   6.3281673   4.4391673
   4.7861673   7.3931673  13.6171673   5.6271673   7.4561673  13.3951673
   4.7491673   7.7901673  14.3931673   4.9051673   7.4611673  13.6991673
   6.7491673   2.9041673   8.3661673   6.9211673   2.6941673   9.1951673
   6.0941673   2.3701673   8.1501673   6.6781673   2.7941673   8.4571673
   7.4991673   2.8421673  10.9561673   7.5521673   3.6891673  11.1581673
   7.2141673   2.4721673  11.6931673   7.4651673   2.9121673  11.0941673
  13.6761673   3.5371673  10.0861673  13.1621673   3.1251673  10.6571673
  13.5501673   4.3811673  10.2671673  13.5821673   3.6011673  10.1971673
   4.0651673   3.7081673   5.5441673   4.9161673   3.6281673   5.3711673
   3.7081673   3.0261673   5.1321673   4.1381673   3.5951673   5.4571673
   2.8321673  10.4331673   6.7811673   2.1591673   9.9351673   6.5361673
   3.2351673  10.6181673   6.0301673   2.7921673  10.3871673   6.6341673
  19.1631673   8.4851673  14.4671673  18.4811673   8.7951673  14.0201673
  18.7941673   8.0271673  15.1121673  19.0071673   8.4631673  14.4961673
   6.4331673   3.7151673   3.7791673   7.1461673   4.2101673   3.8691673
   6.6551673   3.1481673   3.1531673   6.5711673   3.7041673   3.7001673
  10.9561673   7.4181673   6.1061673  10.4331673   8.0521673   5.8131673
  11.2661673   7.0541673   5.3771673  10.9241673   7.4581673   5.9551673
   5.0311673   5.2061673   8.8661673   5.4981673   5.4951673   9.5441673
   5.6031673   4.7281673   8.4121673   5.1851673   5.1781673   8.8991673
  16.9971673   8.8671673  12.5571673  16.3261673   9.3811673  12.7751673
  17.0601673   8.9671673  11.6931673  16.9071673   8.9581673  12.4621673
   5.6811673   6.3921673   5.6921673   5.8071673   7.2351673   5.8791673
   6.3491673   5.9931673   6.0881673   5.7991673   6.4581673   5.7781673
   8.9931673   9.6161673  10.1531673   8.7161673   8.9751673   9.6301673
   8.7851673  10.3421673   9.7151673   8.9221673   9.6291673  10.0111673
  14.2951673   4.3991673  14.5781673  14.7791673   5.1171673  14.6761673
  14.6891673   3.9721673  13.9271673  14.4251673   4.4421673  14.4961673
   8.5911673   7.2441673  15.7551673   8.9451673   7.0661673  16.5321673
   8.1551673   6.5151673  15.5561673   8.5791673   7.1101673  15.8411673
  16.7241673   5.0301673   4.6481673  17.0801673   4.6801673   5.3631673
  16.7161673   4.3691673   4.0781673  16.7761673   4.8801673   4.6691673
  12.7691673   8.0961673   8.4921673  12.1661673   7.8001673   7.9351673
  13.3141673   8.5481673   7.9831673  12.7601673   8.1191673   8.3341673
  12.7821673   4.9471673   7.8921673  11.9851673   5.1711673   8.1661673
  13.0401673   4.3531673   8.4771673  12.7021673   4.8921673   8.0191673
   6.6741673   9.7591673   2.3401673   6.5271673   8.9831673   2.7111673
   7.3631673   9.6121673   1.8251673   6.7541673   9.6221673   2.3191673
  16.0421673   2.9451673  12.7381673  16.0971673   3.0701673  11.8761673
  16.7951673   3.2651673  13.0401673  16.1611673   3.0101673  12.6551673
  12.2331673   8.2941673  17.0151673  12.3971673   8.5771673  17.8241673
  12.4961673   8.9551673  16.5101673  12.2961673   8.4341673  17.0601673
  11.7731673   2.7511673  12.3381673  11.6181673   3.3611673  12.9421673
  12.3071673   2.1931673  12.7441673  11.8291673   2.7591673  12.4871673
  15.3831673   5.4801673   8.8651673  14.9041673   5.7781673   8.1991673
  15.0271673   4.7041673   9.0431673  15.2601673   5.4091673   8.7931673
   9.3801673   3.1981673   7.4271673   8.5331673   3.0041673   7.5081673
   9.7041673   3.0331673   8.2201673   9.3021673   3.1451673   7.5561673
   3.2281673   2.8911673   9.7431673   3.9501673   3.3791673   9.7061673
   2.9581673   2.8611673   8.9141673   3.2951673   2.9591673   9.6151673
   2.6231673   3.9431673  14.0211673   2.2021673   3.4251673  13.4601673
   2.2711673   4.7291673  13.8781673   2.5091673   3.9831673  13.9171673
  17.5701673   2.4931673   7.4211673  17.2841673   2.8941673   8.1411673
  18.4301673   2.4311673   7.5481673  17.6551673   2.5431673   7.5461673
  18.7011673   8.1261673   7.9501673  18.9911673   8.3831673   7.1691673
  19.3961673   8.2221673   8.4691673  18.8471673   8.1781673   7.9111673
  18.2281673   4.5231673  13.3431673  18.8561673   3.9741673  13.0871673
  18.1671673   5.0881673  12.6811673  18.3121673   4.5261673  13.2071673
   7.3621673   5.7541673  10.6391673   7.0641673   6.3461673  11.2061673
   7.4171673   6.1961673   9.8901673   7.3261673   5.9071673  10.6121673
   5.3411673   4.7041673  14.0371673   4.5351673   4.4141673  14.2041673
   5.2521673   5.5721673  14.0431673   5.2091673   4.7891673  14.0621673
   9.8781673   2.1771673  10.1301673  10.3541673   2.5511673  10.7581673
   9.0551673   2.3111673  10.3891673   9.8271673   2.2521673  10.2611673
   9.1421673   9.5701673   5.3581673   9.6881673  10.2491673   5.4121673
   8.7921673   9.6521673   4.5631673   9.1711673   9.6831673   5.2481673
   7.3251673   7.7981673   8.7471673   6.7011673   8.3801673   8.5651673
   7.5731673   7.5121673   7.9611673   7.2691673   7.8421673   8.6041673
  11.6341673   4.4321673  15.7361673  12.3911673   4.7181673  15.4101673
  11.0871673   4.4841673  15.0581673  11.6651673   4.4821673  15.5871673
  15.5431673   6.9821673  14.2401673  15.8891673   7.2521673  14.9941673
  15.8371673   7.5641673  13.6601673  15.6381673   7.1081673  14.2661673
   9.9781673   9.4471673  14.6271673  10.4561673   8.8471673  14.2111673
   9.6271673   9.0041673  15.2921673   9.9971673   9.2931673  14.6641673
  16.5661673   2.7541673   2.8081673  17.0421673   2.0251673   2.7601673
  15.7451673   2.4681673   2.7321673  16.5151673   2.6041673   2.7891673
  10.0371673   4.6661673  13.6471673   9.2421673   4.6021673  13.9981673
  10.1081673   5.5131673  13.4521673   9.9301673   4.7811673  13.6701673
   5.8671673  10.8731673   8.9641673   5.8781673  10.9321673   9.8341673
   5.4421673  10.1261673   8.8141673   5.8061673  10.7711673   9.0701673
  12.7821673   3.9211673   5.1631673  12.8581673   4.2621673   5.9621673
  12.9511673   3.0741673   5.2841673  12.8181673   3.8461673   5.2991673
  10.3041673   3.1951673   4.7281673  10.0061673   2.8801673   5.4851673
  10.9991673   3.6681673   4.9631673  10.3631673   3.2181673   4.8751673
  10.5261673   7.3131673  12.7551673  11.2131673   7.1991673  13.2801673
  10.6601673   8.1041673  12.4111673  10.6471673   7.4131673  12.7821673
   2.6311673  10.3711673  14.4061673   1.9771673   9.8021673  14.5041673
   2.2561673  11.1441673  14.5571673   2.4791673  10.4011673  14.4431673
  11.1491673   1.7771673  16.3291673  11.4721673   2.4631673  15.8971673
  10.4451673   2.1001673  16.7311673  11.0921673   1.9261673  16.3241673
  14.2331673  10.1511673   7.2581673  13.7821673  10.7941673   7.6371673
  14.9411673  10.0721673   7.7631673  14.2711673  10.2341673   7.3891673
  10.9341673   5.2411673  10.1881673  10.2401673   5.6431673  10.5311673
  11.6111673   5.6741673  10.5271673  10.9311673   5.3641673  10.2891673
  16.3111673   7.8341673  16.7681673  17.0871673   7.4441673  16.8511673
  15.8421673   7.4981673  17.4231673  16.3561673   7.7271673  16.8771673
  11.2561673   6.8321673   3.3571673  11.0511673   7.6651673   3.1981673
  10.4811673   6.4501673   3.4791673  11.1111673   6.8991673   3.3521673
  15.5261673   8.8651673   3.3401673  15.3521673   8.2111673   3.8901673
  16.2391673   8.5941673   2.9171673  15.6061673   8.7281673   3.3591673
  13.2011673   6.3181673  11.0311673  13.4071673   6.6191673  11.8231673
  13.1401673   7.0401673  10.5461673  13.2221673   6.4691673  11.0761673
  12.7351673  10.5321673  15.2771673  11.9821673  10.5141673  14.8361673
  12.9031673  11.3841673  15.3611673  12.6491673  10.6551673  15.2241673
  18.0131673   4.9571673  10.4891673  17.9811673   4.0951673  10.3541673
  17.3201673   5.2591673  10.0551673  17.9061673   4.8741673  10.4051673
   6.4071673  10.1551673  14.6951673   6.4481673  10.2811673  15.5581673
   7.0581673   9.5951673  14.5391673   6.5091673  10.0911673  14.8001673
  16.1181673   8.2171673   9.2861673  16.6451673   8.1341673   8.5951673
  15.7271673   7.4391673   9.3401673  16.1381673   8.0901673   9.1921673
   4.0001673   8.5381673  16.0551673   4.5951673   8.9691673  16.5271673
   3.6361673   9.1621673  15.5661673   4.0341673   8.6941673  16.0521673
  17.2351673   2.6731673  15.7001673  17.8691673   2.5031673  16.2741673
  17.6521673   3.0761673  15.0481673  17.3901673   2.7081673  15.6891673
  14.6461673   2.7841673  17.0551673  15.5171673   2.7481673  17.0191673
  14.4271673   3.2041673  16.3231673  14.7431673   2.8401673  16.9421673
   4.4001673   8.6091673   8.2361673   4.3211673   7.7991673   7.9201673
   3.9561673   9.0961673   7.6641673   4.3231673   8.5611673   8.1051673
   1.9721673  10.8531673  11.8171673   2.4651673  10.7971673  12.5351673
   2.1601673  10.1201673  11.3821673   2.0731673  10.7361673  11.8591673
  38.0551785  40.7755505  34.2025755  90.0000000  90.0000000  90.0000000
