
 4828  0.0000000e+00
  12.7101445  10.4433703  19.0179951  12.0791352  11.3079381  19.2240269
  12.6530707  12.2340250  19.2565996  11.6127443  11.1792886  20.2007706
  11.1292219  11.3711619  18.0623085  11.1899853  10.5124617  17.1913273
  10.1855063  12.3175335  18.0261738  10.2867842  13.0468428  18.7175162
   9.1151381  12.4088597  17.0703585   9.1250801  11.5416670  16.4100678
   7.7701926  12.3973095  17.8416712   6.9558936  12.3197496  17.1212513
   7.7615571  11.6371596  18.6228258   7.6041472  13.3747971  18.2944948
   9.2777580  13.6155331  16.1031897   8.2900625  13.8841045  15.3470738
  10.3927100  14.2991936  15.9967167  11.1633718  13.8159180  16.4356119
  10.5697048  15.4070687  15.0931771   9.7529405  16.1203146  15.2039749
  11.8832362  16.0865259  15.3676254  12.7224946  15.3966808  15.2789671
  12.0351529  16.8556190  14.6103174  11.9174516  16.5678978  16.3449747
  10.5014753  14.9047434  13.6487944  10.9325695  13.7176931  13.4424336
  10.2173281  15.8569622  12.7345545  10.1410854  16.8321669  12.9860861
  10.0075865  15.5988693  11.2840063   8.9367998  15.7267022  11.1253292
  10.4044032  16.3522923  10.6035740  10.3084314  14.5692444  11.0904486
  16.6865336   0.1292198   9.7941821  17.4792659   0.4907506   9.7493570
  16.4989888   0.1510446  10.6459372  16.7759310   0.1858490   9.9133818
  22.2368277  11.3991134  26.7117865  22.9658986  11.3866203  27.1907837
  21.6522611  10.9943788  27.2173626  22.2581733  11.3374822  26.8572314
  15.1690948   2.0226985  28.5534811  14.8938668   1.8282041  29.3581939
  15.8405292   2.5624681  28.6911917  15.2276218   2.0737027  28.6926985
  22.1278121  13.4459317  29.2507534  22.8165175  13.5478008  29.7765366
  22.4732806  13.1119394  28.5225763  22.2805811  13.4116423  29.2208557
  11.7942536  20.7945783  14.3298357  11.9068825  20.1343436  14.8888915
  11.0168469  20.6286187  13.9703422  11.6960526  20.6725318  14.3593149
   1.3971554   2.0309392  13.3779652   0.9521281   1.9070594  12.6378662
   1.0631406   1.4348361  13.9203961   1.2820756   1.9245829  13.3487637
  10.3278195  11.9379222   8.7441356   9.9086653  11.2644339   8.3810098
  10.2582204  11.7853427   9.6002991  10.2556216  11.8158960   8.8169677
  32.9359185   3.0889385  10.4496939  33.1499802   2.7731960   9.6650774
  33.5963666   3.6255567  10.6420214  33.0651032   3.1215661  10.3622038
  31.5533369  25.5986381  18.0414469  31.0869042  25.6829596  17.3090059
  31.3729291  24.7875166  18.3072931  31.4577853  25.4912758  17.9725249
  19.5717382   3.5752150  25.0374389  19.6641946   4.2818978  25.5406189
  18.8412631   3.2041246  25.3371692  19.4774890   3.6247888  25.1560450
  14.4818485  15.5984795   1.8858521  14.2193878  15.1272666   1.2001317
  14.0471315  15.2462661   2.5552600  14.3788612  15.4768431   1.8834441
  26.3431967  28.3066344  26.8258555  26.3730884  29.1762090  26.7619211
  27.1801705  28.0676961  26.7665035  26.4712507  28.3997941  26.8076451
  15.0333679   9.6482024   5.4830081  14.9507368  10.5027709   5.3280122
  14.6768260   9.5475612   6.2728746  14.9684930   9.7595725   5.5767901
  16.6257502  14.6658094  14.6304447  16.6096236  14.2982538  15.4215080
  17.4152161  15.0351317  14.5919068  16.7399861  14.6660716  14.7416098
   2.5193321  23.8062568  24.0512490   3.2851063  24.1407032  24.3020034
   1.9550215  24.4560702  24.1941953   2.5490915  23.9516528  24.1094065
  21.6866862   9.0128565   2.6550896  21.5763509   9.8715383   2.7629382
  22.4560963   8.8555765   3.0351002  21.7840468   9.1164678   2.7271564
  30.7316386  17.3556297  29.9398102  30.0078332  17.6662176  29.5645966
  30.5196606  16.5349262  30.1463284  30.5934035  17.2802751  29.9148907
  25.4977536   5.8748889  12.3187000  25.2750945   6.7089796  12.4446137
  25.4859376   5.5358398  13.1224711  25.4631162   5.9480172  12.4560339
  16.4687417   0.7686813  25.6468344  16.3976453   1.5345318  26.0586047
  15.6894182   0.3963859  25.7700992  16.3431142   0.8268173  25.7258701
  31.0568975  16.0270436   3.7479081  30.6506799  15.8128435   3.0061211
  30.4613851  16.4959926   4.1798653  30.9089254  16.0646756   3.7021412
  29.5939922  20.6720798  27.7201084  29.6944571  21.3813131  27.2220806
  30.4108715  20.4577129  27.9389575  29.7295022  20.7451837  27.6788715
  16.0084582  26.1089147  27.1757077  15.6518722  26.6125609  26.5590017
  16.0607279  25.3253169  26.7957329  15.9635044  26.0675598  27.0284774
  16.4829528   7.1623342  10.7032275  15.8245909   7.3545091  10.1639998
  16.3148999   6.3419550  10.9479201  16.3608742   7.0695322  10.6597185
  28.0355091  11.0761363  18.9279275  27.9865641  11.7150385  19.5199983
  28.4600485  10.4397995  19.3474286  28.0909920  11.0765154  19.0773576
   3.3835509  15.0076134  18.1501705   3.7608224  14.7126086  18.8794024
   2.7242255  14.4511254  18.0207426   3.3418858  14.8818309  18.2387716
  26.2373721  25.8055067   6.7722791  26.5196549  25.1760864   6.2381548
  26.7803466  25.7554197   7.4533165  26.3592803  25.7051277   6.7939812
   5.8907849   4.3724411  26.2410958   5.2329922   4.9426668  26.1837609
   5.5261999   3.6760895  26.6196663   5.7397586   4.3538110  26.2885506
  30.9685052  30.8881653   5.9994558  31.1165694  31.2431235   6.7825464
  31.7369098  30.5344475   5.7859662  31.1038866  30.8883483   6.0835985
  28.3264195  19.8311298   5.3972738  27.6297557  20.1545398   4.9835031
  28.9552056  19.8593252   4.7931450  28.3163916  19.8830669   5.2469104
   8.0618131  17.8356814  23.2104141   8.7074304  17.3413312  22.8942854
   7.7199739  18.2064939  22.4985249   8.1066871  17.8174329  23.0585558
  28.1288659  29.3933487   0.4622856  27.7647530  29.2419553   1.2405168
  28.3800065  28.6014891   0.1957821  28.1121766  29.2540121   0.5378783
   2.7835643  19.4693966   0.4882191   3.0627929  19.6953912   1.2832645
   2.1510231  18.8906665   0.6497841   2.7313720  19.4172902   0.6295302
  30.5648375   8.1108508   6.0497445  31.0461903   8.1781802   5.3252411
  29.8928046   7.6117835   5.8038884  30.5366707   8.0470739   5.9064025
  23.2509912  10.5399692  23.8738758  22.8918756   9.7548991  23.9997322
  23.7319071  10.6629527  24.5913298  23.2689834  10.4421651  23.9984495
  19.2239511  13.8215876   9.4735272  18.7372065  13.2342958   9.0500791
  18.9114845  14.5867300   9.1941364  19.1058910  13.8478601   9.3697030
  26.3646841   5.0308669  15.1428156  27.0620060   4.7396651  15.5787998
  26.0047317   5.6054580  15.6918328  26.4145184   5.0727290  15.2883201
   7.6644827  21.7355299  10.2601266   7.8383328  21.9726586  11.0815191
   7.2751595  22.4390483   9.9215531   7.6326539  21.8744826  10.3314483
  23.2072234  25.6314635  19.0396673  23.3017826  26.4515018  19.3220408
  22.7260351  25.2543831  19.6620877  23.1501102  25.6968975  19.1733248
  32.8326368  19.5838821   4.1121204  33.6886477  19.4986582   4.2574484
  32.6936126  20.4404759   4.2018969  32.9385519  19.6978295   4.1468508
   4.2710769   5.9785557   7.8309924   3.5628900   5.9995890   8.3400781
   4.8280659   6.5171397   8.2320268   4.2487419   6.0612226   7.9654367
   6.6605633   7.4788457  19.3425267   5.8754981   7.6701808  19.6714692
   7.1046668   7.1807635  20.0317710   6.6101962   7.4630773  19.4929343
  20.1897764   1.4273965  15.4014378  20.8090472   0.8204108  15.3054612
  20.6305218   2.1284936  15.6759339  20.3463626   1.4412987  15.4278081
   5.0501978  31.0246052  25.6026006   4.7322518  30.6608834  24.8761320
   4.3619999  31.0482850  26.1382890   4.9015695  30.9743752  25.5744195
   7.3082960  34.2290177  25.3992391   7.0792383  33.8297596  26.1403632
   6.9520289  33.7298312  24.7787333   7.2218311  34.0962972  25.4170561
  21.4282595  35.1743749   3.8777557  21.4624917  34.7280982   4.6266249
  22.1422898  34.9126792   3.4501866  21.5387904  35.0697927   3.9252183
  24.5584292   2.0764058  18.6982199  23.7609804   2.1506970  19.0441939
  24.5292605   2.6003068  18.0012175  24.4363207   2.1647709  18.6463687
  11.7879570  28.6869073  10.1420321  11.4431751  29.2039442   9.5297112
  11.2276459  28.7549877  10.8072819  11.6542554  28.7733412  10.1498522
   1.9945553  31.6526413   5.9960587   2.2103751  32.4781203   5.8139927
   1.6899928  31.6955376   6.8124778   1.9814461  31.7809176   6.0897643
   6.2458980  22.5395126  15.0224936   6.7989755  22.5827951  15.6958222
   6.0548133  21.6899915  14.9682724   6.2993717  22.4204154  15.1139486
  11.5645539   6.7263992  24.1852235  11.7507016   6.2722070  23.4639757
  11.4918315   7.5469334  23.8978695  11.5813100   6.7805154  24.0362321
  30.7772357  35.2838020  21.5111859  31.6059474  35.1634344  21.2664635
  30.7276637  36.1433990  21.6518099  30.8923308  35.3930014  21.4958079
   4.3364891  10.6920941  17.6955378   4.3387771  11.2689407  17.0410287
   5.0688398  10.2352006  17.5688481   4.4450104  10.7098133  17.5801384
  17.1932137   7.9744244  24.5963383  17.2970879   7.9940569  23.7303329
  17.1089101   7.1243608  24.7736073  17.1961045   7.8517526  24.4945979
   1.5922864  12.0181501   6.8062556   1.4967361  12.7565444   6.3515204
   1.3502431  12.2419178   7.6140195   1.5424168  12.1602809   6.8584049
  32.8858342  32.4283051  15.0164306  32.4532738  33.1151605  15.3362143
  33.6462190  32.4476838  15.4437232  32.9342606  32.5326300  15.1267886
  21.4526593  15.4200905  17.7975685  20.6816136  15.8157890  17.8978188
  22.0127808  16.0825985  17.7054341  21.4215028  15.5764120  17.7987654
   1.7117962   6.4389913  29.4569836   1.1571100   6.3425272  28.7905322
   1.4746310   7.1994226  29.8128424   1.5948234   6.5370720  29.4111047
  27.3819364   5.0644159  29.4429684  27.0601297   4.5347348  28.8289499
  26.7989702   5.0070000  30.0894928  27.2482825   4.9776897  29.4477701
  31.7120266  19.5678537   1.0600598  31.3450265  18.8427751   0.7427095
  31.0663724  19.9445932   1.5098794  31.5624356  19.5163982   1.0796282
   8.9822232  29.0119786  26.6429650   9.3977963  29.0388132  27.4095919
   9.5620095  29.3466492  26.0835173   9.1292559  29.0653808  26.6735696
  22.6437879  15.8370750  22.5907111  21.9430995  15.3791349  22.3448110
  23.2828927  15.2433317  22.6031113  22.6346898  15.6817215  22.5562191
   2.3109996  35.4044311  23.2358360   2.4436318  35.6450809  22.4078059
   2.0618068  34.5709545  23.1698179   2.2937810  35.3168584  23.1037664
  14.2525220  11.3134837   1.0980528  13.4253263  11.0980332   0.9234994
  14.5788860  11.5240121   0.3168314  14.1785383  11.3127565   0.9568661
  29.4132543   2.8642213   9.0453458  29.3645263   2.7511466   9.9090463
  29.0157509   3.6299849   8.9159685  29.3473363   2.9606369   9.1538209
  18.5615576  12.2470481  29.3643618  17.7559627  11.9156058  29.3163657
  18.7797392  12.1354420  30.2016664  18.4747840  12.1815998  29.4809580
  28.8712381   1.3330370   6.8075502  29.0316366   1.8533194   7.4892521
  29.4706510   0.7037829   6.8842429  28.9834760   1.3169396   6.9195807
  28.3780742  34.8773501   1.1043736  27.9128791  34.3983928   1.6659184
  27.8596545  35.5589282   0.9375447  28.2327742  34.9072813   1.1626813
  23.6129875  27.5464416  26.3976336  23.0238868  28.1645012  26.5768123
  24.3735159  27.9232717  26.5994668  23.6383105  27.6934075  26.4539170
  29.2294776  11.2019241   6.1734493  29.9020039  10.7544172   5.8439214
  29.2274415  10.9778893   7.0166237  29.3285214  11.1027229   6.2493260
   1.7105885  33.3072395  26.1271786   1.7535032  34.1749848  26.2066492
   2.1762310  33.1438632  25.4077171   1.7857130  33.4112893  26.0326388
   4.3450445  29.5887470   2.4557662   4.1750389  30.1161385   3.1296325
   4.1859806  30.0887465   1.7587447   4.2964342  29.7405148   2.4523456
   8.6007393  18.3878982  15.8312457   8.5169256  18.8878405  15.1211946
   9.0413750  18.8947177  16.3881235   8.6534489  18.5366178  15.8086186
  25.2843034  20.8211691  14.4723547  25.9385335  21.0934741  13.9634621
  25.6909119  20.4905767  15.1698625  25.4410111  20.8125598  14.5002162
   6.7568839  22.7948589  26.7597086   7.2626603  22.3724587  26.1879523
   6.0484017  22.2892732  26.8195040   6.7269409  22.6577766  26.6840775
   7.8759617   8.4947174  13.1937969   8.1863678   9.2541425  13.4905374
   7.5482237   8.6987274  12.4114239   7.8734016   8.6370390  13.1220591
  18.8784325   3.5863560   8.6848861  18.2677329   3.1183875   8.2735580
  18.4355235   4.2675924   9.0025145  18.7227929   3.6178601   8.6710447
  15.9252904  12.4158590   3.1095893  15.4786371  12.0578783   2.4511869
  15.3899549  12.3272340   3.7927491  15.7802270  12.3498838   3.1132443
  14.2718124  21.1978459  13.0840903  14.2340243  20.8540583  12.2831397
  13.4950674  21.0005283  13.4288686  14.1514897  21.1179137  13.0167048
  17.5057317  10.0784647  19.1399889  17.8931618  10.5899179  18.5488444
  17.9473711   9.3282282  19.0830748  17.6282025  10.0431919  19.0442579
   2.4190259  32.6968301  13.6893382   2.5221017  32.0344390  14.2476859
   3.1111234  33.2050077  13.8439240   2.5364894  32.6740495  13.7946524
   1.1762364   7.3574531   6.7308743   1.1000324   8.0408180   6.1938984
   0.4809060   6.8668854   6.5385253   1.0622649   7.3859334   6.6231377
  12.6674712  21.3563371  27.0431467  13.2776964  20.9336185  26.5848102
  13.0801285  21.5770578  27.7794462  12.8185714  21.3264966  27.0842074
  17.8267766  29.0195537  14.5588403  17.3832596  28.8453078  13.8280397
  18.5557843  29.4020629  14.2700951  17.8689504  29.0503192  14.4082325
  11.3711249   0.6161325  23.7605224  11.0803973   0.0195806  24.3268619
  10.9361922   1.3390439  23.9827262  11.2639319   0.6347983  23.8770066
  26.6142959  19.3525047  27.5198674  26.3109417  20.0376303  27.0729685
  25.9217728  19.0826876  27.9767585  26.4671845  19.4138546  27.5213432
  30.1372144  21.2482197  22.8450339  30.0628511  20.6037075  23.4283113
  30.3065745  20.8303995  22.0981186  30.1512475  21.0912914  22.8208612
  23.4907079   5.5481827   4.7127087  23.2603812   5.6285781   3.8750775
  22.7377152   5.6445217   5.1426608  23.3454514   5.5742902   4.6524865
  16.8133318  15.6839483  18.3047605  16.6967797  15.6802147  19.1693652
  16.3108683  16.3433092  18.0328858  16.7218900  15.7807939  18.3923197
  17.8648782   9.9725587  10.8439030  18.1906199  10.2674563  11.5976061
  17.6306760   9.1526682  11.0284676  17.8784001   9.8950059  10.9825053
  26.2440621  20.7806127   3.8563068  26.1484896  21.3670795   3.2175119
  25.4242694  20.6035822   4.0965898  26.1088406  20.8410947   3.7974388
  25.2010954  21.4951198  26.3293552  24.8069031  20.8448904  25.9016252
  24.5533628  21.8657701  26.7812395  25.0471813  21.4538210  26.3329244
  21.1495376   7.4478929  25.3052075  20.9217501   8.2111662  24.9493057
  21.9357109   7.2881715  24.9623377  21.2320232   7.5370519  25.2019865
  14.3246150  31.1408257  19.5080216  14.3113005  31.7656994  20.1167042
  13.5786796  30.7085061  19.6415074  14.2124581  31.1692691  19.6176512
  23.0185343   9.7816913   6.6019950  22.3364712   9.2388694   6.5662799
  23.5416104   9.4960516   5.9648595  22.9950501   9.6593111   6.5026031
  30.1566041  14.7670662   0.8411564  30.3563965  14.1569173   0.2504458
  29.3317340  14.9763358   0.6489720  30.0642673  14.7078478   0.7255043
  13.9759219  26.8496442  10.5934983  14.3052495  26.1991143  11.0725539
  13.1711662  26.9533896  10.9140365  13.9056921  26.7688727  10.7116144
  22.6165520  18.0006051  28.7338209  21.9428145  18.2540476  28.2408834
  22.9764497  17.3535967  28.2723093  22.5701939  17.9424667  28.5928297
   3.1374100  30.9662795  21.5052438   3.1853312  30.1694846  21.1531639
   3.9257830  31.3065243  21.3508368   3.2609478  30.8988380  21.4304256
  16.0328555   5.4059083   0.1095659  16.3556552   5.3849585   0.9198148
  15.3982651   6.0027249   0.1569421  15.9867978   5.4909761   0.2362544
  13.3123051  34.0765112   3.5372622  12.8630292  34.6125190   4.0587814
  13.0295645  34.2831104   2.7381928  13.2041728  34.1862075   3.4962637
  30.7572818  23.2491892   2.0810086  30.7967710  23.4632843   1.2361748
  31.1169052  23.9346950   2.4833686  30.8162379  23.3820789   2.0156462
  15.4767310  28.4661074   1.7241842  15.7805907  28.2245172   0.9428770
  16.1439072  28.3046133   2.2626455  15.6201731  28.4065635   1.6883118
   1.5685045   8.8973873  27.2784185   0.7175481   9.0130537  27.4321485
   1.9284355   9.6468704  27.5427389   1.4959704   9.0251892  27.3401737
  16.8403590   6.6038030   5.7651298  17.0729697   6.4564514   6.5929692
  17.2879732   6.0042399   5.3164571  16.9408417   6.4934683   5.8211391
  16.7113902  23.8569021   9.3750531  16.9249274  23.3113003   8.7286336
  15.9241654  23.5779715   9.6272809  16.6266467  23.7351012   9.3168218
  24.4573679   2.9163316   1.5612704  23.9948883   3.6554641   1.5918619
  24.3603363   2.5804120   2.3605735  24.3747177   2.9758945   1.6838629
  27.6572299  22.6706858  21.9453502  26.9294810  22.3150737  22.2694826
  28.2959986  22.2264178  22.3399878  27.6440859  22.5525267  22.0515275
   6.3051659  33.8363600   8.4654981   7.1305752  33.8447475   8.7479317
   6.1746222  33.0042672   8.2380784   6.4078122  33.7146807   8.4736246
  32.8952503  16.7337251  17.6899818  32.5983262  15.9380722  17.4902013
  33.0915952  16.6724896  18.5378269  32.8803921  16.6071451  17.7857164
  21.8316282   2.4901642  19.5819504  21.3810254   2.4954839  18.8349087
  21.4182616   1.8940271  20.0666029  21.7040015   2.4028884  19.5431931
   5.5741428   3.0185253   3.4272330   5.4739688   3.1338842   2.5682824
   4.8811887   3.4223039   3.7706273   5.4569839   3.0952127   3.3510750
  23.9387304  20.2803063   5.1297075  23.6946405  19.5011854   4.8222477
  23.2374800  20.5562139   5.5693228  23.7990845  20.2059722   5.1492293
   7.7882701   7.8720903   2.8590760   7.7063519   8.4953552   2.2541215
   8.2292366   8.2657278   3.5007438   7.8413087   8.0223078   2.8644994
  10.0863159  20.6711354  17.3034920   9.7371186  21.4705863  17.3121991
  10.0828660  20.4366173  18.1438078  10.0342215  20.7545867  17.4289097
  12.1857822  19.0613389  16.9047153  12.6942194  19.5040715  17.4584472
  11.4763987  19.5638299  16.8311143  12.1560979  19.2009687  16.9756413
  32.2187675  20.1239838  28.4944473  32.0580310  20.1526036  29.3514667
  33.0817762  20.2413144  28.4435688  32.3225076  20.1455416  28.6135302
  31.5546608  15.0356507  24.0160172  32.4017787  15.1838386  24.1628807
  31.1644244  15.3517401  24.7294193  31.6221499  15.1042342  24.1430961
  25.1465869   8.1365078   1.9114549  24.9913812   8.2009571   2.7675492
  25.1652098   8.9664953   1.6432984  25.1264119   8.2686346   1.9983060
  20.1739216  31.6085137   3.7787213  20.4522133  32.1937613   4.3628277
  19.3048751  31.6548998   3.8399090  20.0866556  31.7018188   3.8740458
  27.7655918  17.0696003  22.2775316  26.9727541  16.8233175  22.0094037
  27.6044405  17.7568252  22.7902627  27.6246680  17.1347363  22.3136640
   3.0156743  -0.0870378   9.5551985   3.0519163   0.7827609   9.4979637
   3.7563025  -0.2966220   9.9659102   3.1304347   0.0104897   9.6074145
   6.3828504  16.0289950  20.5886061   7.0256698  15.9697826  20.0017388
   5.8509052  16.6319520  20.2500565   6.3992292  16.1093171  20.4519016
  19.4887984  24.5419598  10.0581753  19.4818676  24.8509836   9.2423356
  18.7058389  24.1663218  10.1419032  19.3721151  24.5321178   9.9500275
   5.5574453  17.2217650  13.7135949   5.0567341  17.0142586  14.3972411
   4.9873078  17.2994192  13.0578103   5.3992587  17.2025831  13.7177147
   6.5673803  35.5922325  16.1529481   6.0074590  34.9464662  16.3279116
   6.6406845  35.5703418  15.2838755   6.4954923  35.4936058  16.0504138
  33.2773469  23.3176906  22.1412425  32.5980752  23.6301536  21.6916912
  33.2115721  23.7152452  22.9150408  33.1672882  23.4225745  22.1891408
   7.9042279   9.9262261  23.7342262   8.2070338   9.1114855  23.6590910
   7.0525967   9.8152161  23.8876462   7.8231560   9.7894740  23.7457895
  24.8551893  31.9541905  24.8538571  24.2548490  32.5666184  25.0140511
  25.2487564  31.8460787  25.6249329  24.8246431  32.0286886  24.9914246
   1.9545293   1.4077222   4.0259450   1.9039236   0.8653690   3.3444541
   2.3501612   2.1127808   3.6980622   2.0054968   1.4317572   3.8768404
   5.2552675  20.7174857  27.4641395   4.7690080  20.6568940  26.7423224
   4.6819519  20.9516842  28.0786324   5.0987457  20.7431311  27.4482846
  16.6230738  18.6526883   9.2536712  16.8756902  18.7976885   8.4312975
  16.9986010  19.3008280   9.7009224  16.7158639  18.7698507   9.1982579
  23.6252076  10.5170948  19.2792971  23.8247246  11.2271435  18.8132889
  23.9703447  10.6826050  20.0632794  23.7056644  10.6464321  19.3262703
  23.2214009  30.8210254  21.6882689  23.0843913  30.7494998  22.5469000
  22.5469624  30.3936815  21.3366253  23.1015336  30.7473302  21.7631609
  11.6913784   8.7654454   0.8769996  11.3217938   8.0853951   1.2795884
  11.0872388   9.3920523   0.9363205  11.5475392   8.7575507   0.9452326
  12.6010405  21.3002868   8.4609921  11.8497645  21.6962523   8.6608154
  12.3654544  20.4720278   8.3209045  12.4552619  21.2364275   8.4698159
   7.4976181  21.3197341   0.7674510   6.7082571  21.6751017   0.6590016
   7.8275464  21.7563405   1.4469058   7.4297546  21.4367213   0.8518011
  12.2323966  16.0884540  26.5586502  12.4101591  15.2757518  26.8214352
  11.4424050  16.0183303  26.1951477  12.1419585  15.9580438  26.5437681
   7.7980971   7.3602486   7.1254110   8.2113731   6.8824452   7.7271134
   7.7795613   6.8385178   6.4264166   7.8564084   7.2125971   7.1110392
  21.2737417  27.2566057  12.8225808  20.4245901  27.1500797  12.6530748
  21.6424704  26.5446646  12.4786084  21.2027740  27.1357013  12.7467292
   6.0824555  18.0775659  27.7960920   5.9264445  18.9028137  27.5599360
   5.6475317  17.9935711  28.5477066   5.9951627  18.1870620  27.8722358
  14.6621264  17.5110400  21.2536131  13.7968720  17.6224852  21.2610411
  14.9492288  18.0955553  21.8341755  14.5767213  17.6138473  21.3404720
   1.2350332  10.2126060  21.5654754   0.9894764   9.6391807  20.9555321
   2.0369565   9.9480567  21.7847388   1.3172209  10.0888191  21.5077644
  10.1342893  24.5957072  21.5663045  10.5206227  23.8364477  21.7544841
   9.4183677  24.5907004  22.0648723  10.0856030  24.4828088  21.6677510
  20.0612474  28.9222897   4.0461380  20.1332784  28.6146922   4.8593647
  19.9350715  29.7778917   4.1608770  20.0532497  29.0032412   4.1832168
  24.3483758   3.6001363  16.2441712  24.2446327   3.0332956  15.5891376
  24.9323440   4.1686726  15.9329062  24.4193149   3.6003867  16.1014300
  16.4573193  24.2570353  14.7421472  16.7207731  24.9746776  15.1625328
  16.1835123  24.5598340  13.9711218  16.4557899  24.4077754  14.6903508
  25.9876418   9.2812371  18.4301502  25.2150345   9.6862429  18.4438879
  26.5627432   9.9343425  18.4922106  25.9584665   9.4375420  18.4413464
  19.3827808  25.8200087   7.6086086  18.8110840  25.4905905   7.0378327
  18.9306259  26.4468827   8.0132419  19.2315364  25.8639493   7.5840658
  13.5062015  35.2361372  17.6561642  14.2179179  34.7519472  17.7981496
  13.6693919  35.6210807  16.8904436  13.6354434  35.2214765  17.5640261
  10.6972158   4.0551550  20.2725727  10.9687006   3.7209923  19.5137818
   9.8342943   4.1287572  20.1672728  10.6098485   4.0166647  20.1449282
  28.1138134  12.6505649  23.1982660  28.2834458  12.8572702  22.3678207
  28.8360620  12.8951097  23.6221695  28.2455635  12.7172244  23.1382108
  22.9699694  29.4133938   0.4760606  23.7005460  28.9365448   0.4727704
  22.4064862  28.9222790   0.9259827  22.9946553  29.2704053   0.5420382
  21.4792944   5.6897044  20.5719202  20.7292058   5.8361989  20.9926831
  21.2289883   5.2821809  19.8422556  21.3315131   5.6511450  20.5262893
  12.1479737  21.3065839   1.9498450  12.9990994  21.2626314   2.1363718
  11.9383799  22.1315694   2.1411736  12.2427403  21.4219594   2.0056612
  22.2936999  19.1513314  15.2138696  22.4364745  18.8860860  16.0326515
  21.4512145  18.9667382  15.0824104  22.1903359  19.0848841  15.3154026
   5.1695746  20.0099611  14.2739994   5.2544117  19.1532969  14.4156725
   5.1884186  20.0769114  13.4043438   5.1848906  19.8933041  14.1664631
  12.0021594   1.0947077   9.3861806  11.5849805   1.7336314   8.9632428
  12.6284301   0.8542960   8.8283926  12.0330465   1.1535757   9.2413068
  12.8394866  24.4798398  13.0208574  12.7122450  24.4169426  13.8816677
  12.0769358  24.2256641  12.6816688  12.7080464  24.4330025  13.0979095
   2.5316229   1.3252854  17.9437270   2.6850063   0.6444681  17.4201836
   2.2723767   0.9556626  18.6902584   2.5159848   1.1701138  17.9766669
   4.9234578  24.5455282  24.8014385   5.6604671  24.0935676  24.9184353
   4.9857235  25.1934211  25.3823883   5.0415272  24.5744674  24.9045403
   0.0040709  13.3486116   1.3909354  -0.2620590  13.2865512   2.2194638
   0.8706199  13.4235561   1.4588942   0.0927650  13.3505142   1.5233674
  14.8544955  24.6540904   0.5718960  14.3226147  25.3042388   0.3362039
  14.6608520  24.0163302   0.0089528  14.7473204  24.6559191   0.4539211
  13.7537897   3.5944727   0.6817307  13.3255851   4.1629606   1.1863102
  14.5182729   3.9876068   0.5328955  13.8034642   3.7365240   0.7342829
   9.1171478  33.9092510   9.3033092   9.5983194  33.9331978  10.0306599
   9.7113059  33.8986509   8.6645549   9.2759965  33.9112251   9.3163960
   6.4604508  17.4190099  17.2633081   6.9545304  17.6940615  16.5989511
   6.2129175  18.1583853  17.6547044   6.4968716  17.5688608  17.2229867
  17.6626575  27.8566871   3.3994072  17.2118556  27.6953254   4.1287082
  18.3847868  28.2522140   3.6879032  17.7027380  27.8912769   3.5497587
   5.6412853  31.7948055  21.1916201   5.9023512  32.4375939  20.6626498
   6.2517846  31.7812014  21.8147128   5.7700337  31.8877482  21.2055241
   3.0732077  32.4778295  10.9445035   3.5938349  31.7904496  11.0771596
   2.8110051  32.6946282  11.7478645   3.1113824  32.4083161  11.0827720
  15.8256078  11.7927425  28.7853979  15.4126751  12.5612276  28.7776071
  15.5057418  11.3808983  28.0859621  15.7173574  11.8454282  28.6809260
  27.3276186  26.8490095  19.0747915  27.7967358  26.1714835  18.7883840
  26.8714356  26.5161724  19.7398124  27.3295283  26.6997577  19.1307197
  24.7855449  16.6236341  20.4136930  24.0663886  16.1656892  20.5987368
  24.5754504  17.4380386  20.6455241  24.6482754  16.6762912  20.4752741
   6.3515002  28.5162568  26.4740699   6.1458015  29.3221545  26.2107103
   7.2235250  28.5084271  26.4485424   6.4499301  28.6341476  26.4313953
   5.0656396  26.5334868  15.4726093   4.4415811  26.7041969  14.8873334
   5.7966059  26.5247273  14.9964266   5.0814319  26.5574121  15.3158098
  20.8933245   2.2572510   6.8540771  21.6529738   2.5431316   7.1739895
  20.3018843   2.7663868   7.2440989  20.9181725   2.3746913   6.9589479
  32.8078496  29.9408548  27.4692219  32.0316254  29.7025173  27.7883095
  32.6550042  30.7273739  27.1240254  32.6706063  30.0218313  27.4653651
  32.6825142  34.6051277   1.5141923  32.0102501  34.8695470   2.0033581
  33.0093503  33.9313198   1.9617421  32.6314878  34.5446525   1.6525657
  31.5874171  34.0832155  17.3875506  31.1674500  33.3317964  17.5294668
  30.9519529  34.6316211  17.1496994  31.4315081  34.0532272  17.3733790
  32.2766638   4.5421379  18.4002624  32.9105020   4.7677915  18.9556633
  31.8143272   3.9513915  18.8456855  32.3019981   4.4882076  18.5481058
   0.7019938   4.2352407   0.5730177   1.1747802   3.5970180   0.2120750
   1.1075462   4.9628084   0.3135642   0.8317436   4.2484396   0.4813724
  28.6133134  13.3286302  20.7005416  27.9990422  13.9426630  20.6182442
  29.3470275  13.7865274  20.8151374  28.6309611  13.4869735  20.7053123
  15.4609680  14.9231708  25.9154582  14.8516858  15.1830947  25.3476954
  15.2913654  14.0743005  26.0240555  15.3459108  14.8361707  25.8476305
  14.8328185  28.0408828  25.4387235  14.2022848  27.9643076  24.8406403
  15.4944873  28.3963125  24.9948739  14.8374176  28.0820768  25.2848088
   8.4800803  24.7553365   5.6676991   8.3162247  25.5133360   6.0673506
   9.3487107  24.7497814   5.5865700   8.5841929  24.8664873   5.7147510
  29.3595147  26.6695516   6.3803928  29.7414851  25.9056728   6.5585082
  29.1754413  26.6133754   5.5294531  29.3887472  26.5484111   6.2810009
  26.5951581   2.6639002  13.3001692  26.6480023   3.4134715  13.7434418
  27.1227676   2.1270816  13.7412960  26.6809029   2.6953285  13.4308130
  32.7500890   7.0201784  16.4983971  32.5297046   6.3388509  16.0000355
  32.1960481   6.9704527  17.1704895  32.6356905   6.9121873  16.5240605
  26.5536297  14.7358577  19.8693793  26.9970018  15.2941959  19.3665712
  25.9862346  15.2464073  20.2919190  26.5353090  14.8937528  19.8575216
  31.8958413  19.2858570  25.2635605  32.1135461  19.6905296  26.0051710
  31.0265815  19.3560426  25.2391226  31.7995917  19.3560045  25.3694994
  24.0817487  15.2224081   9.1914088  23.2797372  14.8814457   9.1506226
  24.0491759  15.7399671   9.8929913  23.9584624  15.2484911   9.2890198
  21.5577722  24.9832256  25.1638205  21.3970041  25.4478831  25.8845074
  21.9540596  25.5537839  24.6360380  21.5925622  25.1361484  25.1923163
  29.4132686  15.6649334  15.2675118  28.8055658  15.1481564  15.6207480
  30.1198602  15.5146963  15.7566895  29.4278765  15.5664022  15.3919520
   1.3810765  25.3152132  20.8524449   0.8588969  24.8281264  21.3536579
   2.0481121  25.5102420  21.3798601   1.4024746  25.2720714  21.0043938
  20.7739162  17.7785249  10.4865248  20.7856321  18.6499829  10.4469712
  20.9342527  17.5337083   9.6646363  20.7993317  17.8710921  10.3592713
  33.3714455  30.2625435   4.9870712  33.9691045  30.8980911   4.9821026
  33.3035690  30.0382154   4.1467077  33.4497053  30.3232877   4.8621971
  27.5660419   9.1437643   0.5925424  27.2310805   8.6431520   1.2236745
  28.4073567   9.2151849   0.8121497  27.6408410   9.0803640   0.7182152
   4.9663296  25.1757080   3.1398159   4.8745397  25.7561822   2.4950178
   5.4285014  24.5330555   2.7730286   5.0210422  25.1665230   2.9903841
   8.5263001  22.7472367   2.9358448   9.2932212  23.0767312   2.6820578
   8.1567704  23.4034362   3.3762803   8.5850035  22.8928437   2.9634156
   0.8799922  35.1518607  13.7975104   0.6173979  35.3325510  14.6096260
   1.2983810  34.3909407  13.8817293   0.9030067  35.0661492  13.9299185
  25.2306105  34.7857857  15.0139127  25.5421902  33.9736891  14.9464307
  25.1836087  34.9165535  15.8752094  25.2696921  34.6851397  15.1311765
  27.8956771  11.9913404  30.2060349  27.8394485  11.1638706  30.4767258
  28.5445762  11.9728534  29.6231730  27.9832268  11.8663757  30.1599199
   0.7795399  22.6510978  15.3683031   1.1460614  21.8903399  15.1491070
   1.1185808  23.2148051  14.7952199   0.8837660  22.6219893  15.2512670
  15.3708291  25.0491493  12.1676857  15.8830702  24.3550031  12.0376522
  14.6284902  24.7029035  12.4679978  15.3368390  24.8954647  12.1928389
   4.1081443  34.9010341  13.7334122   4.0157318  35.7448595  13.5320343
   4.7938347  34.6500938  13.2559218   4.1957837  34.9886148  13.6331286
  31.2924594  25.5941629  22.1519075  31.3836712  26.1370468  21.4750777
  30.4933334  25.2617979  22.0420371  31.1878859  25.6252599  22.0356951
   2.8962552   2.2835929   7.3931687   2.9239284   2.6404722   8.1887882
   3.5075556   1.6619928   7.4257915   2.9906451   2.2444899   7.5155180
  11.1935161  16.9324422  18.8347292  11.5595888  16.2221706  18.4845197
  11.2788509  17.5360918  18.2106578  11.2601970  16.9166911  18.6908090
   9.0609658  30.0348585   3.2179600   9.0880364  30.1121442   2.3493788
   8.3584225  29.5368450   3.3577904   8.9611846  29.9727075   3.1103086
   5.2581507  14.5085437  29.9954891   5.8790106  14.8780830  29.5064974
   4.5203817  14.8608382  29.6909785   5.2408808  14.6151740  29.8782730
  22.2846448  16.0445469  25.3661329  21.7650162  15.3518074  25.4721195
  22.3521840  16.1196487  24.4995672  22.2178637  15.9533088  25.2537806
  19.3490350  16.7418146  18.5925228  18.9402092  17.5125265  18.5907109
  18.6969411  16.1636126  18.5525734  19.1923153  16.7702532  18.5863526
  13.9687359  27.0633905   3.6073296  14.5347500  27.1779363   4.2612760
  14.3897331  27.3830764   2.9132812  14.1145384  27.1275346   3.6014049
   0.3813817   8.5460251   0.7571871   0.1671801   8.4431236   1.5966327
  -0.3838289   8.7005441   0.3676803   0.2367023   8.5536497   0.8236510
   9.9908936  25.9129548   0.9344142  10.5823779  26.4808488   1.2323754
   9.4913626  25.7523966   1.6314285  10.0044763  25.9731269   1.0813921
  11.3857472   6.1202591   7.8968055  11.6414058   6.7081754   8.4885270
  10.6452918   5.8018272   8.2306702  11.3141322   6.1600702   8.0335338
  31.1929917   5.7565975  10.5817921  31.3014793   6.0526639  11.3952524
  31.8011665   5.1356125  10.5066950  31.2988567   5.7086003  10.6908638
  22.0645749  34.0701575  12.4542461  22.5842034  34.4440423  11.8615089
  21.2716996  34.3727433  12.2519479  22.0242106  34.1700862  12.3368059
  11.4289892  18.4600673  12.3033023  12.2470880  18.2446037  12.5164413
  11.3773322  18.2568107  11.4564502  11.5422082  18.3982120  12.2096896
  10.2236152  23.8988590  12.4150365   9.5811462  23.4230828  12.7643376
   9.8325205  24.6505046  12.2071533  10.0709367  23.9396119  12.4359267
   6.7853093  18.6461663   1.8862155   6.8817693  19.4443142   1.5474015
   6.4226973  18.1901145   1.2368555   6.7459929  18.6967015   1.7402419
  21.1492801  32.3089194  15.0153582  21.3613605  32.7182102  14.2746537
  20.4595518  32.7566171  15.3068691  21.0787225  32.4355125  14.9490028
  29.1468096  11.1249702  26.3228798  29.6641922  11.6419332  25.8472705
  29.5383191  10.3465526  26.2789559  29.2810702  11.0863464  26.2461329
  22.2805810  16.5644376   1.1628716  21.7239642  15.9346025   0.9291427
  22.6377320  16.8134992   0.4068630  22.2511148  16.5081899   1.0166662
   4.9467061  24.0198874  13.0002148   4.0951847  24.0864015  13.1780512
   5.2773355  23.6471939  13.7164004   4.8697589  23.9746594  13.1322796
   1.7621054  32.3876296  19.2718923   2.1567510  32.2918589  20.0440454
   1.4034788  31.6057287  19.1264355   1.7674261  32.2579796  19.3644679
  19.2527831   5.4278343  18.2275164  19.0044404   6.1761921  18.6009145
  18.7124527   4.8367136  18.5735798  19.1362799   5.4510610  18.3337963
  33.3077176  25.4429650  11.6706228  32.6146225  25.3792953  11.1445951
  32.9559145  25.5128622  12.4659145  33.1533646  25.4438853  11.7103994
  27.4186230  26.8267144  23.6384463  27.1192622  26.4463259  22.9126167
  26.8186307  26.6242452  24.2385769  27.2857690  26.7406143  23.6198783
   0.4775559  25.4944818  16.4081223   1.0727393  24.8966472  16.6305859
  -0.1727284  25.3566950  16.9731743   0.4694163  25.3858106  16.5244562
  24.6713340  24.3131685   1.1936667  24.0485846  24.9052644   1.3444939
  25.1051079  24.2745733   1.9496363  24.6434199  24.3949318   1.3276193
   5.0749480   6.2855464  22.8336859   5.7873975   6.3595563  23.3317614
   5.0096308   5.4266161  22.6954389   5.1705419   6.1695975  22.8868413
  17.7528954  11.9987476   8.2661383  16.9050050  12.1908069   8.1930917
  17.7634954  11.3240826   8.8191812  17.6292109  11.9274569   8.3370440
   7.6813577   5.3705948   4.7966940   7.8815435   4.8549478   4.1220290
   7.0657037   5.8987968   4.4755728   7.6199840   5.3724496   4.6495945
   8.2448710  31.1389802  11.2138019   8.2617915  31.7628257  11.8234478
   8.9901698  31.2592209  10.7765232   8.3574665  31.2488971  11.2392650
   8.8286912  26.3123918  28.7274194   9.3062960  26.1743093  29.4443321
   8.2666575  25.6451249  28.7236977   8.8162171  26.1934257  28.8327742
  13.2154858   9.1421383   7.8420336  12.6243675   9.1443412   7.2003824
  13.0484676   9.8795335   8.2773382  13.1034935   9.2513912   7.8115518
  20.8302857   5.9326464   5.7810313  20.1056220   5.4474044   5.7578284
  20.6327893   6.5694988   6.3436634  20.6940629   5.9550422   5.8607156
   3.0226003   9.4494074   9.8168428   3.2042610   9.9980514   9.1632921
   3.8087427   9.2302196  10.1251871   3.1655657   9.4980734   9.7658498
   6.6288733  27.0935054  19.7015934   6.2468994  26.3953109  20.0590282
   6.9438511  26.7908807  18.9463799   6.6189766  26.9456638  19.6428328
   3.0035294  32.7653737   2.9500229   2.1424139  32.6416708   2.8843171
   3.0714358  33.4646202   3.4673078   2.8863562  32.8503935   3.0167324
  25.1705694  29.4662905   7.9386169  25.1724362  28.7665653   7.4175406
  25.8547211  29.9308586   7.6606703  25.2719092  29.4315529   7.8205848
   0.1196634  25.3742154  24.2354703  -0.0829876  26.0915805  23.7821937
   0.1574480  25.6564815  25.0601149   0.0953089  25.5218811  24.2903280
  31.2549388  12.4534910  29.9097620  31.4138638  12.4537580  29.0519271
  31.9655215  12.8281229  30.2501450  31.3833844  12.5088756  29.8333226
  13.5543620  27.9131436  20.5531723  12.7455746  27.7308393  20.8247788
  13.4912860  27.8792405  19.6836836  13.4255683  27.8812051  20.4648525
   1.5705287  25.1178122   1.5986711   2.0877992  24.5889640   2.0611547
   1.8444263  25.9164143   1.8185650   1.6874015  25.1576591   1.6994722
  13.5207690  32.0972228  22.3238090  12.8935135  32.4797249  21.8532947
  13.7755812  32.7243018  22.8742460  13.4657515  32.2463584  22.3356155
   5.2719557   9.5094544  24.3397378   5.0453459   9.0065616  25.0156706
   4.7950851   9.1943103  23.6806332   5.1680361   9.3886137  24.3422239
  11.0456085   2.0865531   0.4992240  11.9170070   2.0819268   0.4570024
  10.7994461   1.9776256  -0.3306420  11.1379683   2.0697789   0.3703993
  13.1938051  15.7284033  23.1902106  13.4565805  16.5308094  23.4098274
  12.3354076  15.7440376  23.3453066  13.1058191  15.8492446  23.2455618
  12.3031128  18.7653034  27.8467924  12.4492729  19.5247476  27.4430353
  12.5794566  18.1705682  27.2714073  12.3655260  18.7896364  27.7021534
   7.4831951  18.2275712  11.6869342   6.7587137  18.7080956  11.6137052
   7.2581685  17.6019573  12.2518325   7.3429328  18.2061386  11.7595637
  19.9578333   1.4223501  27.4037106  20.5365109   1.4059649  28.0564005
  19.2402279   1.7525579  27.7740414  19.9373114   1.4687082  27.5548298
  19.9020445  10.0895517  28.2002234  19.6132278  10.7985227  28.6186552
  20.2442980   9.6008699  28.8367701  19.9099374  10.1220911  28.3560634
   2.3060654  10.5398195   0.3877170   2.9443741   9.9834221   0.5977709
   1.5781632  10.0819128   0.5347497   2.2928305  10.3899877   0.4404671
  24.7521006   1.5099743   4.0605161  24.3978392   1.3535289   4.8422846
  25.5781447   1.2449013   4.1528770  24.8217904   1.4477074   4.1896430
  31.1935163   6.9090779  13.0649340  31.0766387   6.3617546  13.7341988
  31.9754648   7.2622616  13.2229209  31.2917614   6.8803985  13.1871355
  20.4413021  22.5806022  28.6903317  21.1393405  22.5768661  28.1670077
  20.1573742  23.4044385  28.6477024  20.5024744  22.7017474  28.6067278
  28.3914400   5.4100436  10.2633984  29.1916911   5.7560396  10.2954085
  27.8704203   6.0788077  10.4693873  28.4326882   5.5599445  10.2985556
  17.0695484   0.7800482  19.2856867  17.3484480   0.5436939  18.4935410
  17.7599907   0.6334174  19.7984488  17.2127402   0.7234734  19.2444164
  23.8988996   4.2544436  20.8881497  23.7855315   3.6667436  20.2534080
  23.2025719   4.7746298  20.8128262  23.7792921   4.2444706  20.7832575
  32.9877998  11.2544322  23.5549862  33.4708501  11.1153972  22.8419144
  33.5547067  11.5959990  24.1233952  33.1429006  11.2843502  23.5336144
   8.6485837   3.4479496  18.2862377   8.6123346   2.6711187  18.6816609
   7.8955816   3.8274252  18.5101271   8.5319923   3.3892521  18.3777225
  33.0595814  15.4296315  20.2314601  32.3064410  15.5161703  20.6632410
  33.3095586  14.6144903  20.4163824  32.9852568  15.3220022  20.3225599
  11.3901722  22.1566463  21.9344187  11.0551572  21.6500521  21.3081074
  11.4204371  21.6304135  22.6296186  11.3451540  22.0040774  21.9445944
  32.4986340  33.1096268  26.5701892  32.3678185  32.9651690  27.4205767
  33.3675911  33.1045604  26.4925521  32.6076724  33.0875373  26.6843404
   0.5452334  22.5464315  28.2957864   0.5211126  22.6473684  27.4295473
   0.3668224  23.3442838  28.6003184   0.5153167  22.6792021  28.2128096
   1.9185661  25.5933738   5.8758170   2.7346036  25.4992771   6.1697013
   1.8636164  26.4444375   5.6919391   2.0309943  25.7051945   5.8920653
  17.4743163  24.4904978   1.9887516  16.7750251  24.3550665   1.4849812
  17.8922974  25.1432450   1.5883085  17.4327647  24.5669157   1.8551807
  27.3764836  21.2271452  10.4160488  27.4461400  20.4286861  10.0714445
  26.5207850  21.3133669  10.5626321  27.2603690  21.1219335  10.3867972
  24.5822859  14.0461509  22.4312329  24.9592400  14.0500944  23.2180166
  24.7579026  13.2488506  22.1236300  24.6639132  13.9289539  22.5020170
   1.5208842   7.1241586   9.3664105   1.3166985   7.2297971   8.5248120
   1.9829863   7.8392761   9.5567019   1.5589838   7.2453992   9.2701990
  23.9369882  21.3784950   1.5153234  23.0792702  21.5364378   1.5379899
  24.2917145  22.1751993   1.4913957  23.8626856  21.5195148   1.5151375
   9.0426242  31.9732619  20.2456236   9.0647399  31.5618987  21.0146689
   9.7905862  32.4221448  20.2315140   9.1563832  31.9788043  20.3571439
   8.6427153  26.2213696  25.7479773   8.9121760  26.9903649  26.0597096
   9.1408838  25.6428964  26.1702762   8.7561119  26.2495131  25.8564101
  31.0867739   8.5463102   0.0031287  31.1625450   7.7023823   0.2109272
  30.8720449   8.9252241   0.7590754  31.0662470   8.4776194   0.1454956
  31.4462566  12.1500075  12.6171851  31.8325639  12.4262285  11.8853331
  30.6670713  12.5419950  12.5983739  31.3882208  12.2487164  12.5062966
  26.1221313  33.8027770  19.9758039  25.9354949  33.9005638  20.8224092
  26.3820028  32.9719783  19.9176632  26.1329508  33.6944961  20.0922762
  15.5998265  33.8502073   5.2065339  15.0510823  34.0360856   4.5542540
  16.1936414  33.3312392   4.8334422  15.6064831  33.8010025   5.0550665
   5.4274523  14.8589921  16.3737280   5.9312069  15.5339837  16.6012318
   4.8313796  14.8243201  17.0098383   5.4138147  14.9535811  16.5013010
  21.2270379  23.5971069   7.2755211  20.9695792  24.4280624   7.3416179
  21.9517827  23.5677266   7.7603071  21.2960649  23.7155151   7.3568981
   3.3704320  20.7250850   2.9359767   3.9624515  20.7437103   3.5765275
   3.0437925  21.5340631   2.9349586   3.4096342  20.8473365   3.0304489
  19.3702758  25.9750284  21.7804527  19.6966947  26.4799906  22.4125934
  19.9789716  25.3589578  21.6751599  19.5084120  25.9586156  21.8582797
  33.0903029  34.6071506  19.9048076  33.3818865  33.7898588  19.9951063
  32.5573730  34.5598483  19.2156873  33.0546498  34.4794321  19.8163496
  12.2907543  23.6550927  17.8646040  12.5957203  23.2785702  18.5901165
  12.9969192  24.0304065  17.5158787  12.4401200  23.6549139  17.9202640
  13.9646708   5.2794456  20.2274639  13.2632195   4.7634938  20.2812798
  14.5776498   4.8385251  20.6644804  13.9516007   5.1380956  20.2999670
   9.2384313   8.5985105  28.4462571  10.0986360   8.7412946  28.4179544
   8.9202093   9.1427343  27.8431869   9.3184923   8.6999958  28.3529902
  19.5969844  33.4595792   9.1920340  18.9200461  33.6991375   9.6875197
  19.6753550  34.1146677   8.6211962  19.5085633  33.5917394   9.1809028
  18.9994418  22.2573192  17.1643908  18.8943183  23.0906768  16.9285853
  19.8272788  22.0860023  16.9488079  19.1062009  22.3551161  17.0977146
  12.5586117  23.1982613  24.7207928  12.7754987  22.7094412  25.4101086
  13.3121122  23.5720611  24.4891644  12.7019585  23.1812692  24.7884011
  15.6629658  18.0427206  17.3294597  14.9679030  18.3264923  17.7738707
  15.3756822  17.9964697  16.5069824  15.5178536  18.0778074  17.2736113
  24.8340566  14.4561827  16.0322935  24.2423344  14.8895860  15.5598910
  25.4885156  14.3245518  15.4706032  24.8433239  14.5007610  15.8795340
  26.5157665   9.9830800  13.9386020  26.4521945  10.5725944  14.5785795
  27.3696942   9.8074150  13.9056049  26.6325182  10.0442147  14.0282665
  19.3526852  18.9508217  15.3390057  18.5892081  18.8302963  14.9343855
  19.1253078  19.0838735  16.1707146  19.2063153  18.9526718  15.4020960
   7.4006724   9.7506540  30.3919268   7.0151514  10.3482454  29.8865557
   7.9071599   9.3080537  29.8363066   7.4185413   9.7735517  30.2351952
   6.6368991  32.0582137   3.0084712   5.9608704  31.9606719   3.5512502
   7.3315495  31.9364105   3.5220511   6.6396499  32.0258079   3.1645162
  22.5008810  24.4358325   4.8025210  21.9415212  24.5443916   4.1418631
  22.0169330  24.0551567   5.4205973  22.3467625  24.3956351   4.7962315
   9.0934312  12.2316873  28.0976427   9.8631322  11.9798446  28.4221006
   9.1064965  13.0992794  28.1884952   9.2090594  12.3226464  28.1589927
  27.8778529   1.8079226  23.6169400  28.4308600   1.3640134  24.1251339
  27.6090741   2.4616759  24.1283097  27.9198384   1.8389218  23.7675538
  20.8647108  13.7958639  25.8816481  20.6720924  13.4035175  25.1265979
  21.4297390  13.2485550  26.2589216  20.9197235  13.6570566  25.8258438
   1.6728269  35.8195989   1.6538499   2.1930563  35.3495424   1.1346702
   0.9134185  35.3910606   1.6255981   1.6374957  35.6868618   1.5729830
  10.9809601  34.1619635  18.1288719  11.7880142  34.4926047  18.1069839
  10.4973054  34.7755504  17.7406323  11.0287333  34.3014455  18.0682874
  23.6090595  31.3798363  28.4685320  23.4793223  30.7965977  29.1042527
  23.5931046  32.1455790  28.8862917  23.5875381  31.4067958  28.6241529
  17.5004899  31.5499067   7.0844378  18.3456980  31.4798188   7.2890152
  17.1279990  31.7976046   7.8334584  17.5703179  31.5761423   7.2253050
  23.4094132  16.7860043  11.3195038  23.9485616  17.4312854  11.0869765
  22.6187146  17.0992279  11.1250162  23.3722533  16.9275951  11.2564242
   9.6839476  28.5974622  12.0437860   9.1461825  29.1899514  11.6960716
   9.3617380  27.8373837  11.7616522   9.5569116  28.5727072  11.9507444
  16.7060124  13.1972425  23.1763124  16.5126073  13.9804666  22.8442097
  17.3480593  12.9087322  22.6608706  16.7722832  13.2703226  23.0511117
   1.8634354   0.4228814  20.5628382   1.5473425   1.1798699  20.8598076
   1.1475217  -0.0465624  20.3948217   1.7109882   0.4653580  20.5818873
  24.6467711  35.1923823  11.6231823  25.5186202  35.2032590  11.5930867
  24.4704987  35.2300930  12.4767888  24.7495200  35.1995587  11.7448318
  16.1354803  13.3057516  16.9714742  16.3065885  14.0031736  17.4669247
  16.7244600  12.7181213  17.2340339  16.2477659  13.3219688  17.0834475
  28.0437959  29.6215405  20.6091671  27.4658627  30.0381627  21.1127149
  27.5649381  29.3416371  19.9357527  27.8876860  29.6417346  20.5840742
  29.5373321   0.3640802  17.0887899  28.8706136   0.4934461  16.5411651
  29.1806865   0.4782636  17.8767657  29.3861604   0.4000575  17.1242952
  14.6801732  28.7161255  16.0356772  14.2847131  28.7043118  15.2581108
  14.8581384  29.5607495  16.1624885  14.6480440  28.8391495  15.9395468
  30.5936859   8.2963157   9.2766516  30.7012431   7.7163643   8.6338227
  31.3014615   8.1845146   9.7743385  30.7141275   8.1941295   9.2552107
  32.1796643  22.6225192   4.8144967  31.5914332  22.9352791   5.3777916
  32.2282492  23.2429333   4.2030508  32.0999514  22.7603681   4.8073823
  10.0524223   5.9854180  17.1808594  10.4278219   6.4936584  17.7824467
   9.9501133   5.2225935  17.5916772  10.0927627   5.9478110  17.3304134
  24.9302816  19.5525396   8.1120436  25.0881529  19.2911994   8.9293044
  25.0902748  18.8402331   7.6343816  24.9772358  19.4087124   8.1622093
   3.8090824   3.1603563  28.0977941   3.0284284   3.2642561  27.7223897
   4.1095279   3.9757377  28.1754041   3.7381433   3.2961529  28.0538034
  25.2313859  27.4434202   3.6580744  25.0319440  26.6235559   3.4362811
  24.9777401  27.4980705   4.4910312  25.1644558  27.3303859   3.7483558
  30.0428391  19.6916759  12.8790552  30.8315873  19.3602896  13.0499346
  29.7926998  19.2655802  12.1600229  30.1224017  19.5797801  12.7980835
  29.7188643  29.7061896  24.9896765  29.6948583  29.3156624  24.2098975
  29.4737668  30.5253744  24.8164630  29.6791122  29.7695112  24.8488998
   5.1880473   8.8378246  11.5807023   4.7348106   8.1273754  11.8064846
   5.1344711   9.3481405  12.2862830   5.1131803   8.8082607  11.7182841
  33.2101728  30.6148393  10.2478480  32.8712369  31.1235253  10.8703423
  33.3601429  29.8600240  10.6588256  33.1822588  30.5784811  10.4005134
   3.9011204  22.9943957  16.4339507   3.4552610  22.2669377  16.2518620
   4.6272069  22.9148020  15.9568727   3.9425159  22.8751816  16.3365781
  -0.1008493  18.6103201  15.9088194   0.6794134  19.0002227  15.8913529
  -0.0627910  18.1070459  16.6204417   0.0200336  18.5935724  16.0113609
  30.2609396  34.7448964   6.7224216  31.0246754  34.6156968   7.1238613
  30.1798487  34.0463595   6.2060791  30.3617811  34.6226227   6.7054480
  10.7132745  35.4388752  11.1913620  11.1886179  35.9556164  10.6735168
  10.0749290  35.9624185  11.4734254  10.6891954  35.5925455  11.1565338
   1.7501961  27.3464315  19.3025523   2.1473014  26.7701118  18.7816851
   1.2844216  26.8460958  19.8446362   1.7400514  27.1873872  19.3056863
  27.4866689  28.6700727   3.1280583  27.5557513  29.5101638   3.3530331
  26.6286934  28.5169656   3.1677610  27.3701329  28.7715543   3.1671566
  14.3168259  29.4732404  22.9211979  14.1338027  30.2719522  22.6216983
  14.1347516  28.9536738  22.2444110  14.2628933  29.5144773  22.7769803
  16.3071573  35.1537871  29.4205829  15.6053448  35.2858520  28.9194264
  16.3343346  34.2864847  29.5110700  16.2074995  35.0451779  29.3599186
  13.1080341  27.2982837  17.8702910  12.2475994  27.4318291  17.8159029
  13.4397101  27.8587730  17.2897894  13.0299258  27.4008067  17.7765066
  10.0609376  15.7462280  22.7320790   9.7586609  15.5587595  23.5287118
   9.7405983  15.1048391  22.2349453   9.9689652  15.6237905  22.7763224
  32.6563770  14.4468606   6.5984803  31.8615375  14.1721869   6.3662654
  32.6106656  15.3126800   6.5014899  32.5322103  14.5341849   6.5498501
  10.1398218   6.6599672  12.3264677  10.1228428   6.0223215  12.9216654
   9.5991433   7.2610586  12.6543266  10.0574446   6.6545694  12.4628241
  25.8136225  17.0603931  17.0572329  25.5041766  16.3084471  16.7410684
  26.6255546  16.8598354  17.3055887  25.8878517  16.9196892  17.0472157
  29.4618431   3.4745519  30.0464725  28.7553642   3.9668577  29.9062586
  29.1405512   2.7584760  30.4274559  29.3100203   3.4414976  30.0820398
  19.1436172  19.6473060   4.9864528  19.7119141  18.9917789   5.0784981
  19.6172404  20.3566680   5.1698279  19.2975307  19.6552596   5.0271380
  26.2332249   8.1739459  24.5179074  26.6744566   7.4467931  24.7120749
  25.4279089   7.8855787  24.3463015  26.1794400   8.0239330  24.5212399
  25.5043197   8.3491762  28.6547542  25.6824059   8.5709340  29.4795251
  26.2909264   8.2007153  28.3078408  25.6468249   8.3600027  28.7253451
  22.7756251  17.8669405  17.7010560  23.6329103  17.7085900  17.7346325
  22.6139594  18.2810426  18.4517372  22.8783823  17.9047203  17.8169072
   3.3214246  11.5050173   4.2288995   3.1960332  12.0508921   4.8978066
   3.1047069  11.9821262   3.5313755   3.2708871  11.6561329   4.2246720
  30.0090671  23.9555454   6.5002792  29.6621537  23.6498594   7.2401088
  29.4195151  23.7419677   5.8936875  29.8707318  23.8788390   6.5199631
  20.3997398  33.4955645  23.8241369  19.8139144  34.0447593  24.1652138
  20.1021076  32.7087021  24.0552218  20.2692343  33.4604573  23.9086563
  26.7409921  16.1939616  25.6794245  26.4244890  15.4238517  25.4188521
  26.1416674  16.4814694  26.2444813  26.6057062  16.1226721  25.7244045
  11.9659125  17.9790235  21.1520635  11.6653716  17.3506582  21.6773938
  11.9537198  17.6091528  20.3620087  11.9197165  17.8315639  21.1129587
  19.9207306  15.3814285   3.5015542  20.0699496  15.0974720   2.6902325
  19.0936089  15.1480453   3.6516936  19.8205900  15.3050058   3.4038837
  12.2058953  13.3284347  26.6352020  12.6280130  12.7448290  26.1429034
  11.4119519  13.3643930  26.2753425  12.1509684  13.2475345  26.5093194
  27.6575756  22.5419664   1.9765753  27.6773500  22.1885824   1.1791612
  28.4966350  22.7084851   2.1480159  27.7844429  22.5143623   1.8841061
  33.0798268  19.1672177  20.2618640  33.2951593  19.3745751  21.0814815
  33.6795163  19.5803745  19.7814350  33.2002234  19.2588801  20.3119694
   8.3756196  15.0673168   1.6017897   9.1752803  14.8114030   1.8388326
   8.4289252  15.9381025   1.6070778   8.5016190  15.1581447   1.6375882
   3.8207542  14.3556654  23.1291202   3.7272536  13.6149573  23.5805038
   4.6348583  14.6080184  23.3153823   3.9272033  14.2835248  23.2233146
  24.7478759  19.6557014  29.7777581  24.0804660  19.1510837  29.5306492
  24.3722092  20.2600067  30.2825665  24.5937907  19.6704261  29.8158264
  16.9734526  27.4739575  29.4103684  16.5894008  26.9033480  28.8736691
  17.4957299  26.9754338  29.9000992  16.9938719  27.3160243  29.4034352
  28.1720299   8.3560102   3.5591681  28.2757742   9.1972845   3.7656409
  28.9425213   8.1323879   3.2164223  28.3011723   8.4472482   3.5390384
  24.2295808  19.5090120  23.5116935  23.5321344  19.8244541  23.9302683
  23.9225323  19.3155353  22.7183294  24.0811963  19.5270317  23.4563303
  22.3658180  25.9792972   1.6971231  21.8981719  26.7148066   1.6587467
  21.7599988  25.3531933   1.7431214  22.2072458  25.9954572   1.6982490
   8.5986817  27.5484801   6.5979798   8.5332125  27.8817065   5.7943542
   9.4530064  27.3962511   6.6879518   8.7152117  27.5752170   6.4925582
   9.2672795  19.5578830  13.4621682   8.6788249  19.2337482  12.9055705
  10.0278497  19.2670982  13.1489291   9.2927045  19.4670456  13.3336749
  28.8269698  23.3089471   8.8640530  28.6776721  22.5198317   9.2048557
  28.0815970  23.7388968   9.0079362  28.6948048  23.2558918   8.9356525
  13.3195484   0.4141909  14.9940658  13.1842458  -0.3066114  14.5215428
  12.5246036   0.7671627  15.0619924  13.1821322   0.3598548  14.9342978
  17.8309989  22.9579656  12.1833627  18.6852014  23.1201856  12.2551935
  17.6818776  22.3645942  12.8053062  17.9351544  22.8942745  12.2858482
   1.5998563  31.7841012   8.7911732   2.0245498  32.1487550   9.4603545
   0.8398744  31.5366213   9.1409189   1.5503274  31.8014101   8.9416892
  14.6489346  33.8055536  24.2847133  15.2401114  33.3694602  24.7553205
  15.0906050  34.4985653  23.9917946  14.8015070  33.8435056  24.3109608
  10.1416744   5.2050931  26.3510680  10.7991398   5.7478435  26.1658573
  10.2224148   5.0704057  27.2092509  10.2507222   5.2653725  26.4504814
   1.0630821  13.4550190  27.5411854   0.2537797  13.4872901  27.8654180
   0.9366964  13.3805323  26.6811739   0.9248613  13.4487832  27.4620400
  30.0332773   2.1269323  22.0039398  29.9200103   2.7429494  21.3966257
  29.2510510   2.0692000  22.3859436  29.9009947   2.2094025  21.9706566
  15.6457413  23.1205297   5.2376121  15.6006289  22.2873259   4.9829084
  15.3086770  23.5596919   4.5633247  15.5892862  23.0623198   5.1003808
   5.4073820   0.2098380   4.1637379   5.3515349   1.0333094   3.8810444
   6.2426291   0.0008262   4.0229571   5.5225191   0.3006064   4.1011819
  20.4697312   5.7863825   1.5094178  20.0605965   6.4401405   1.9172805
  20.0265885   5.7011287   0.7627623  20.3438319   5.8703630   1.4593714
  32.7679885  21.4578629  10.8374916  33.3352081  22.1039581  10.6892953
  32.2766500  21.7621374  11.4910541  32.7791977  21.5982533  10.9121452
  21.7399955  21.7378969  16.2858069  22.3816919  22.2653205  16.0189927
  21.9157004  20.9825940  15.8860755  21.8607426  21.7042346  16.1873436
  17.0037413   3.5062425  26.5592702  17.2277070   3.3452242  27.3869490
  16.7616463   4.3443220  26.5716006  17.0010627   3.6062591  26.6833570
  15.3460385  18.1134755   1.3263282  15.2672459  17.2954876   1.6192923
  16.1814143  18.1634910   1.0797849  15.4577996  18.0000300   1.3331856
   1.3463186  12.8318803  24.7561811   1.1834596  13.4823482  24.1980558
   2.1264051  12.5346058  24.5027428   1.4374946  12.8840559  24.6362965
   3.9014708   6.6383743  12.1346695   3.5485708   5.9883291  12.5973208
   4.7576415   6.4746755  12.1709139   3.9758145   6.5181673  12.2083695
  12.8197087  26.4725280  24.4466739  13.3845437  25.8859015  24.1336696
  12.4157465  26.0448837  25.0909363  12.8434742  26.3226986  24.4956075
  23.5947704  31.0755686   2.9097302  23.4815216  30.7538558   2.1067269
  24.3370175  30.7031335   3.1771285  23.6876845  30.9730286   2.8306110
   4.5674315  13.7190008  20.4442643   5.2174401  14.3003714  20.4190367
   4.1761205  13.8817739  21.2068390   4.6056467  13.8289261  20.5531853
  16.3531435   4.7042224  11.8987000  16.7726111   4.6850821  12.6634347
  15.5281806   4.5175132  12.1125126  16.2932432   4.6738142  12.0432520
  15.5505072   7.8383813  13.3421452  15.9101140   7.6033101  12.5828249
  14.7735631   7.4416337  13.3327086  15.4888570   7.7450500  13.2285864
  11.0644566  27.7231949  14.3028700  10.5734097  27.8371923  13.5908186
  10.7427060  26.9948785  14.6594870  10.9443890  27.6324480  14.2503655
  11.5600096  18.5751009   9.3638938  10.8387648  19.0517294   9.2465370
  11.5084540  17.9678917   8.7395733  11.4458501  18.5558116   9.2543333
  10.6443154  30.5777097   5.7330441  10.3970277  30.2507591   4.9629200
  11.4314973  30.9161711   5.5689675  10.7240664  30.5794096   5.5950433
  12.8572857   9.8125070  12.5420814  12.8551090   8.9788169  12.7991729
  12.6604855  10.2520239  13.2695668  12.8278935   9.7542799  12.6875227
   2.1540944  20.2844651  14.7524541   1.9230236  20.3010352  13.9113407
   3.0125600  20.1311810  14.7263651   2.2467735  20.2642698  14.6243506
  20.6417513  31.2679887  11.1587429  21.0963774  31.9739509  11.3955414
  21.1998844  30.8234477  10.6567371  20.7913566  31.3066053  11.1195660
  32.9021063  15.3742635  12.7060427  33.2834711  15.4500091  11.9250454
  33.4375419  14.8435950  13.1451811  33.0375376  15.3070617  12.6555409
  30.5348527  13.2505584   9.0496690  30.1752984  12.4868250   8.8292820
  31.2911641  13.0220473   9.4196923  30.5934607  13.1039834   9.0717752
  32.1251249   2.1208446   8.0138690  32.1672249   2.3900168   7.1850664
  31.3833761   2.4744599   8.3069617  32.0217705   2.2128432   7.9347331
  26.1047482   5.1423137  22.3314459  26.1833429   5.8499305  21.8272240
  25.4292488   4.7151582  21.9816191  26.0165715   5.1837461  22.2052843
  20.1975333   0.7392642  21.1195241  20.1413953  -0.1292164  21.0584555
  20.5165898   0.8683325  21.9212018  20.2363717   0.6300378  21.2289272
   5.2343977   3.8862245  15.1547074   5.3773249   3.2796352  15.7652485
   5.3937019   4.6367662  15.5699790   5.2790440   3.9074891  15.3062403
   5.9008795  27.1281433   9.8938721   6.4665914  27.5044751   9.3466210
   6.0607278  27.5209832  10.6562805   6.0080600  27.2417665   9.9256551
  28.5070843  18.0232875  10.9591610  28.8980017  17.3969238  11.4239104
  28.5274471  17.7160423  10.1428730  28.5678390  17.8853767  10.9072334
  11.6928923  11.4669149  28.8472427  11.9811940  12.0618694  28.2779874
  11.7922533  10.7114380  28.4223615  11.7501581  11.4432018  28.7003883
  18.1189382  19.2140651  18.0184810  17.2974157  18.9610851  17.8693455
  18.0450773  20.0692010  18.1747716  17.9866707  19.3030167  18.0195384
   3.4792909   5.6711071  24.9644194   3.7567928   6.0325067  24.2204295
   3.5417223   6.3204830  25.5436884   3.5295060   5.8204191  24.9400864
   1.4913737  12.7998550   9.6083683   1.3128316  13.6416561   9.4647259
   2.3569142  12.7894313   9.7173363   1.5928566  12.9226668   9.6032465
  31.3481641  19.6427631   9.3650253  31.6614079  20.3960466   9.6741945
  30.6005669  19.8742950   8.9795024  31.2840033  19.7882414   9.3537457
  27.4937951   2.5535193  19.1563191  26.6224801   2.5687677  19.1977753
  27.7007281   1.7690569  19.4771590  27.3956477   2.4398905  19.2098345
  20.7397296  24.1422827   2.4148718  20.9579588  23.3004184   2.3457342
  19.8801304  24.1442759   2.2658020  20.6449868  24.0182168   2.3826382
  27.4308085  30.8432449   7.3926538  28.0750489  30.3464259   7.7077204
  27.3191547  31.4499200   8.0095959  27.5094819  30.8594729   7.5303310
   4.3101543   7.8789359  26.2357204   4.9979806   7.8415722  26.7711066
   3.7323833   8.3608788  26.6773667   4.3264115   7.9446089  26.3800483
  21.7743433  24.4730301  21.0944127  21.5782476  23.6229880  21.0836666
  22.5041307  24.5091827  21.5711134  21.8531800  24.3528015  21.1632442
   4.9021362  11.0966158  20.4660225   4.8877548  11.9681370  20.4288387
   4.5872806  10.8529556  19.6897256   4.8535036  11.1893630  20.3458548
  30.5041194   4.5481508  24.5539410  30.4282999   4.0292518  25.2511770
  31.1739874   4.2036884  24.1137535  30.5918741   4.4206159  24.5919115
  16.8007028  21.3606644  14.0371544  16.8018556  21.8967485  14.7254498
  15.9831393  21.4136124  13.7372763  16.6801023  21.4476776  14.0945322
  11.3750947  26.5746785   3.3756366  12.2193468  26.7886258   3.3246019
  11.2139225  26.5787245   4.2330435  11.4759994  26.6068811   3.4947544
   8.8752729  19.1426129  25.3025152   8.9882272  18.6070676  25.9819054
   8.5069203  18.6324580  24.6981989   8.8375455  18.9881415  25.3136050
  25.0441527  30.4501118  19.6741951  24.4378972  30.7491030  19.1226518
  24.6744156  30.5482592  20.4582882  24.8999786  30.5087771  19.7085476
  21.1335850  28.2011176   6.5760582  20.8195448  27.5330950   7.0411008
  21.7781448  27.8419537   6.1105674  21.1824083  28.0493809   6.5759914
  31.7466637  10.7319100  19.4584589  32.3652045  10.1166613  19.4544058
  31.2176112  10.4866297  20.1073664  31.7598829  10.6047923  19.5537167
   8.0059897   9.7628123  10.7841539   7.4520194  10.4360104  10.8167517
   8.7087046  10.0545657  11.2110114   8.0279624   9.9053556  10.8520246
  20.9373509  17.6161277   4.7612650  20.5648028  16.9365466   4.3606193
  21.6970383  17.7098048   4.3426449  20.9945428  17.5295770   4.6402414
   2.7788150  11.1623676  27.8952670   2.2992646  11.8597324  27.6834846
   2.5368630  10.9883721  28.7152219   2.6722347  11.2396796  27.9851055
  17.6920605   1.0707706   1.0169072  17.7847410   0.6724010   1.7875248
  17.5227702   0.4155397   0.4663143  17.6807440   0.9151321   1.0494093
  13.7060524  17.1328027  12.3521454  13.5819460  16.4711709  11.7971880
  13.9954627  17.7778060  11.8409188  13.7304712  17.1303458  12.1946509
   9.9437129   2.4206154   8.0086558   9.9332368   3.0425923   8.6203544
   9.3611848   1.8389456   8.2975571   9.8561131   2.4265688   8.1416934
  16.6890024  15.7948177  21.0504365  17.2504686  15.9294622  21.7044711
  16.0722898  16.3976972  21.1821246  16.6808389  15.9037655  21.1665034
  24.6204495  11.1473167  28.2840330  24.7603369  10.3198338  28.5224508
  25.2869630  11.3220823  27.7489107  24.7395730  11.0508966  28.2402038
  23.0701376  25.5901067  28.8393092  23.2875277  25.7086866  29.6758628
  23.5547473  26.1792200  28.4159446  23.1738402  25.6946485  28.9003468
  23.6073232  16.2790024  14.2314839  23.3134079  17.0656681  14.4679368
  23.7932253  16.3755274  13.3845699  23.5913682  16.4094687  14.1413057
   2.0397495  27.7889967   8.2627576   2.5985026  28.4367871   8.4339302
   2.5542480  27.0881891   8.1899445   2.1982908  27.7811646   8.2772868
   1.5843055  34.7952700   7.2903204   2.1771568  35.2797747   7.7085572
   1.0817057  34.4861507   7.9329550   1.5976375  34.8211789   7.4470329
  27.7211070  21.4712112  13.3167320  27.6438308  21.9270294  12.5768678
  28.3705473  20.9138172  13.1473856  27.8056288  21.4562051  13.1824224
  23.2772613   5.4070790   1.8827207  23.6748624   6.0075266   1.3902623
  22.4323463   5.5126626   1.6926963  23.2111835   5.5113752   1.7819030
  22.5070810   3.9676492  12.7829206  22.8586698   4.5382517  12.2244084
  21.9877386   3.4805553  12.2787762  22.4822998   3.9799850  12.6259434
   3.2068526  28.1201982  29.5135735   3.4124910  28.9585376  29.3869277
   3.7937366  27.8514314  30.1004904   3.3239233  28.2043362  29.5815650
  13.3369005  32.4734545  28.7003541  13.4759916  33.1027126  29.2884254
  14.1256822  32.1171689  28.5907054  13.4739674  32.5137782  28.7710285
  25.0197554  12.6202982  12.8817320  24.3915820  13.1864374  12.6671994
  24.5919585  11.9915073  13.3092237  24.8637652  12.6110428  12.9131901
  26.3524003  11.1080367  26.0283685  26.2472648  10.3067858  25.6996107
  27.2007424  11.1374099  26.2298441  26.4621872  10.9940154  26.0095668
   4.1379296   4.0839307   5.7532150   3.8309895   3.4174316   6.2251360
   4.1053259   4.7585075   6.3055045   4.0877735   4.0851228   5.9045107
  26.7557907  11.6219671  16.2240756  27.2584629  11.4474923  16.9154644
  27.1518636  12.3028905  15.8491004  26.8885541  11.6967804  16.2708163
  18.5877896   5.5501716  29.7253801  18.9531649   5.8211486  28.9809253
  17.7660943   5.8374994  29.6670746  18.5203827   5.6326454  29.6067959
  25.4155051  24.4998043  11.2178648  25.1364505  23.7013977  11.0038221
  24.7278058  24.8568313  11.6187906  25.2726971  24.4346016  11.2454712
  25.3391863  23.8537281  18.0865812  24.8816754  24.5727842  18.2730925
  25.7482077  24.0578382  17.3434913  25.3320242  23.9900987  18.0043638
  25.1910759  34.0771880  22.5954216  25.6332094  33.3943119  22.9106008
  24.5081539  34.1456737  23.1339996  25.1555062  33.9864292  22.7215390
  26.3242221  27.9767864  16.6054421  25.5356359  28.0624788  16.9686609
  26.8437624  27.7975242  17.2829979  26.2844801  27.9629676  16.7591863
  13.1851566  22.5979424  29.5431045  12.8490853  22.1028900  30.1780227
  12.5076175  23.0794048  29.2780069  13.0354261  22.5959349  29.5977310
  14.7444999  24.7167737  23.6510490  14.6683383  24.8927421  22.7999478
  15.6000519  24.7976417  23.8014810  14.8596323  24.7547133  23.5475456
  18.3961260  34.9158993  27.4430429  18.9081430  35.6222305  27.4343993
  17.7669930  35.1255246  28.0099539  18.3788252  35.0512049  27.5255107
   6.5848268  31.6515202   6.9202250   5.9082354  31.3973166   6.4316082
   7.1616925  31.9448010   6.3351184   6.5700949  31.6572927   6.7616141
   4.6356761  15.5446489   6.3302715   4.7996699  15.5487211   7.1871431
   5.0899898  14.8597033   6.0377199   4.7270118  15.4440696   6.4136345
  30.7607794  29.2629088  29.2902385  30.0365758  28.9027299  28.9632197
  30.4585648  29.8462088  29.8643178  30.6091547  29.2958684  29.3267344
  18.9853369  14.5718258  27.5598652  18.7801825  13.9022129  28.0801232
  19.4494092  14.2006366  26.9211228  19.0235841  14.4180792  27.5423653
  25.4087109   0.4903715  25.7103260  25.3613634   0.7286136  24.8723887
  24.5734049   0.4429977  25.9576302  25.2783252   0.5185669  25.6230774
  15.7399451  10.0636322  16.8261652  14.9488103   9.6970708  16.8557399
  16.1229979   9.7842176  17.5585180  15.6796633   9.9682100  16.9387179
   4.0917098  16.4735723   2.5377434   3.2810628  16.1747503   2.6589601
   4.5757138  15.7482338   2.5100916   4.0434562  16.3222826   2.5515645
   1.4661668  29.5940096  25.4078113   0.8169149  29.5239718  25.9863507
   1.1003040  30.0187380  24.7393136   1.3162158  29.6464045  25.3945228
  11.0741221  23.6703157   2.8556708  11.1992680  24.5335555   2.8384000
  10.9458482  23.4985161   3.7013480  11.0736596  23.7724566   2.9780436
  32.1536613   8.5472333  23.7385971  32.3594069   9.3922877  23.6701090
  32.8575706   8.1945342  24.1144306  32.2880363   8.6199647  23.7839968
  30.3785454   8.7272668  25.8507967  29.8244082   8.0560178  25.9098864
  30.8529698   8.5399204  25.1430106  30.3667723   8.6004347  25.7549715
  17.6812148  34.4784566  14.1510785  17.9818285  34.7640679  14.9186707
  17.4641824  33.6488403  14.3116176  17.6935625  34.3980959  14.2881823
  17.5941516   8.5426061  28.0710268  18.3127094   9.0373819  28.0739164
  17.2330321   8.7008064  28.8492990  17.6469529   8.6390607  28.1864214
   3.5880542  30.9188526  30.0734302   2.9029399  31.2548845  30.4963289
   3.4197140  31.0968464  29.2361013   3.4619814  30.9947841  30.0122103
  18.0191886  11.1572814  21.5234552  17.5313603  10.8523536  20.8675728
  18.8156926  11.2225926  21.1735235  18.0647885  11.1218846  21.3748751
   3.3060109  21.4764149  22.0335882   3.0925929  21.6662736  21.2092428
   2.9804908  22.1455295  22.4890672   3.2264005  21.6033025  21.9790988
  13.5727728   4.4300573  15.5261975  13.8805342   4.7069090  14.7582286
  14.0133394   4.9080198  16.1080878  13.6833156   4.5415609  15.4987102
   9.4802135  25.0359790  18.6631799   9.5974439  25.1376073  19.5217073
  10.2630889  24.7767275  18.3785164   9.6131778  25.0126951  18.7479520
   7.4191653  13.4473007  25.3453379   7.0077931  13.9912145  24.8012119
   6.8275153  13.2934873  25.9677791   7.2709977  13.5049265  25.3569069
  24.4023072  10.7759655   1.0281644  24.3432652  11.1541700   1.8121383
  24.5483195  11.4453101   0.4879807  24.4151532  10.9307098   1.0641772
  15.6773937   3.9660028  22.2005759  15.2885747   3.2056171  22.3788248
  16.5222001   3.8033247  22.3454104  15.7447529   3.8296473  22.2483025
  13.4723581  23.4386897   7.0385518  13.3787883  22.6801634   7.4592938
  14.1235877  23.2839227   6.4790120  13.5547364  23.3037782   7.0180478
  17.3627351  18.6712050  13.5769207  16.6461156  18.2623339  13.8605005
  17.1152757  19.5061553  13.5243542  17.2203229  18.7341464  13.6110480
  10.0469720  12.2823572  24.3923926  10.0874197  11.4109027  24.4008136
   9.1938031  12.4473691  24.3148494   9.9269158  12.1780014  24.3821812
  16.7915822  29.5996101  23.8704446  17.0695973  30.4236300  23.8008884
  16.0240234  29.6063901  23.4557823  16.7192663  29.7223360  23.7989143
   6.9373547   0.4199879  23.0467391   7.3292624   0.0012891  23.7041879
   6.0880815   0.2885764  23.1971002   6.8697917   0.3387253  23.1660700
  15.2663732  32.6238561  13.4771616  14.6583307  32.0025826  13.4033806
  14.8031795  33.3469510  13.6311896  15.1081300  32.6388955  13.4890158
  23.6337227   6.7769163   8.1129517  24.3217397   7.3102443   8.1706824
  22.9926611   7.2267358   8.4974493  23.6406589   6.9221466   8.1782784
   7.8566111  10.1638858  26.6768920   8.2050837  10.9175222  26.9447287
   8.1098116  10.1053255  25.8440658   7.9454911  10.2665632  26.5934314
   6.6913830   4.0467882   7.8052126   7.0043694   3.6424786   7.0983062
   6.0057580   4.4918346   7.5002704   6.6363370   4.0528059   7.6557384
   9.5555294  10.7571340   1.9430222   8.8723529  10.6762505   1.4064898
   9.1971792  11.0226321   2.6928439   9.4016755  10.7844055   1.9745316
   4.0137994   8.1087718   5.9799320   4.0517324   7.6291070   6.7076833
   3.2286346   7.9193721   5.6501109   3.9034179   8.0099378   6.0387141
  13.6327363  28.6864866  13.4052508  12.8737415  28.2761861  13.5345571
  13.3968199  29.4461400  13.0469089  13.4857667  28.7380935  13.3714168
  20.5759215  28.7958302   9.7724645  21.2361002  28.4158196   9.3471496
  20.4640603  28.2882228  10.4731505  20.6569195  28.6647095   9.8131411
   1.4224643  16.6335316   3.6807343   1.0861680  17.0209796   2.9750937
   1.3880080  17.2550411   4.2920262   1.3676965  16.7825754   3.6667970
   7.2277533   2.5312870   5.4551332   6.6590106   2.9396956   4.9346750
   8.0044829   2.7811473   5.1462667   7.2584759   2.6285284   5.3326266
  10.5852734   0.0788648   2.6728119  10.4680812   0.7304103   2.1045746
  10.7035529  -0.6191604   2.1629967  10.5854356   0.0719983   2.5135579
   7.2186565  29.2882562   8.3794778   7.0343488  30.1284933   8.2339757
   7.6908165  29.0582037   7.6828592   7.2611779  29.3783927   8.2550805
  14.4937013  29.9189122   9.8840940  15.2266382  29.4501467   9.8192585
  13.9334558  29.3715627  10.2683747  14.5192121  29.7688110   9.9312824
   1.1382591  15.5627573  23.7818170   1.9088661  15.5290091  23.3741856
   1.0287678  16.4130652  23.9434576   1.2359201  15.6833792  23.7454796
   2.1081077   0.0216300  26.9963837   1.8210986   0.1783308  27.8052163
   2.9761064   0.0590058  27.0758867   2.1939318   0.0502991  27.1276093
   1.8046148  15.5897601  15.7990003   1.6489381  14.7407586  15.6721127
   1.0071713  15.9355099  15.8743715   1.6638193  15.5154188  15.7913899
   7.1715628  35.3256464  12.8644311   7.5964057  36.0860062  12.8144109
   6.6262900  35.3501749  12.1838295   7.1537720  35.4415894  12.7565038
  27.2247791  11.0440016   4.3066675  27.7003670  11.4170694   3.6775596
  27.6972485  11.1779678   5.0277526  27.3648262  11.1189008   4.3202526
   2.8034878  21.6415865  19.1751092   2.5585735  20.8522053  18.8957649
   2.1993843  22.1743495  18.8399046   2.6780704  21.6036792  19.0843277
  14.3794335   0.2965491   8.0626738  14.2081977  -0.5045731   7.7626401
  15.0824857   0.1810901   8.5661876  14.4579936   0.1611512   8.0927318
   0.8530294  21.9463320  25.5437781   0.0577676  22.0943005  25.2169739
   1.3475000  22.5569517  25.1645922   0.8085953  22.0583911  25.4394891
   5.3184139   1.9525521  17.3302679   5.8044326   1.2523748  17.1440535
   4.5335042   1.6159293  17.5084286   5.2742612   1.7993952  17.3290782
  27.5480973   1.0827763   4.3570025  27.9630696   1.1384327   5.1224048
  28.1684052   1.2712271   3.7731821  27.7010333   1.1188347   4.3838246
  18.1557596  23.2984703  19.6616995  17.9528821  24.1444128  19.5956647
  18.2385528  23.0420034  18.8319361  18.1380200  23.3855455  19.5293713
  24.9042212  27.8149860  10.1617205  25.5610072  27.6243131  10.7033992
  25.2767836  28.3234995   9.5586008  25.0562751  27.8619402  10.1526439
  28.2898790  32.1455493  24.4155859  28.0318225  32.8285351  24.8931580
  28.9724392  32.4541416  23.9683484  28.3525873  32.2920265  24.4200670
  30.2166152  31.4962308   0.8800026  29.3878841  31.2349145   0.9578343
  30.4659581  31.6358374   1.7043070  30.1310277  31.4782519   1.0132667
  33.3581749   5.3848821  27.5656540  32.6608165   5.4757708  28.0819590
  33.5848867   4.5492050  27.6723606  33.2886507   5.2748615  27.6576836
  32.9262257   8.4088600  10.5670178  33.4974861   7.8669536  10.1913345
  32.8829527   8.1228709  11.3901079  33.0042195   8.2865626  10.6331086
   5.3716564  23.2052803   0.5887192   5.8530283  23.4750748  -0.0870259
   4.5545295  23.2388854   0.2848881   5.3220582  23.2500982   0.4440158
  29.7095253   4.0971407  19.9285364  28.9594533   3.8031453  19.5937300
  29.4540192   4.5983797  20.5953312  29.5609809   4.1277549  19.9775779
  27.1909237  21.4104588  29.4559563  26.4989948  20.9078688  29.2833880
  27.7655101  21.1875076  28.8384766  27.1735907  21.3032813  29.3392499
  10.8290017  29.3346788  28.8094551  11.2862862  28.7483944  28.3530552
  11.0070027  29.1327400  29.6393234  10.9228481  29.2182423  28.8646204
  24.0780748   1.9619760  14.1062742  23.5172332   2.4866568  13.6923819
  24.8387612   2.1213335  13.7099140  24.1075964   2.0630226  13.9865833
   8.1778854  22.8498816  17.6129375   8.3334309  23.5919213  18.0445848
   7.6777172  22.3935080  18.1631170   8.1269777  22.8920794  17.7579723
  13.9138055  33.5446405   7.4695772  14.4399965  33.5345745   6.7737603
  14.3925369  33.1681490   8.0942470  14.0622532  33.4875369   7.4590671
  11.1568095  17.4521375   3.1737706  10.5970789  18.0264878   2.8303191
  11.5878750  17.1457255   2.4799144  11.1378027  17.4917173   3.0205387
  19.7044528  35.5114191  12.1457427  19.7745538  36.3505571  11.9175511
  19.1602123  35.5289762  12.8273826  19.6344125  35.6379717  12.2127264
   0.8400222   5.2687263  20.1636171   1.4994091   5.4001278  19.6076667
   1.1020415   5.6719053  20.8915830   0.9761328   5.3476948  20.1890278
   0.9296678  22.5267434   6.3173372   0.2918170  22.3962379   5.7365997
   1.4587043  23.0933762   5.9171016   0.9135936  22.5911689   6.1724264
  17.9168975  19.2425609  25.1166605  18.1492317  19.7976506  25.7483541
  18.0727720  18.4581578  25.4653054  17.9742432  19.2086864  25.2614765
  16.1654555  21.6683306  20.6491213  15.4167306  22.1155801  20.6264417
  16.7384946  22.2084584  20.2735781  16.1395060  21.8141904  20.5902951
  27.9279137   4.7708306   5.8768763  27.7934408   4.6859410   6.7346920
  27.2344685   4.3790856   5.5207743  27.8056121   4.7004217   5.9509911
  30.2355838  15.4627187  21.3023322  30.5433297  15.2052696  22.0770269
  29.5379496  15.9443183  21.5085035  30.1779890  15.4958303  21.4472263
  13.4131228   5.1047009   6.4196784  12.6614272   5.3475314   6.7899878
  13.5224997   5.6852752   5.7777197  13.3182370   5.2263349   6.3795502
  30.8141936  12.4684882  24.7370463  31.5027083  11.9825900  24.5112365
  31.0273371  13.2677233  24.4596790  30.9473870  12.5147748  24.6627169
   9.0428740   9.7157711   8.0407178   8.5576731   9.2017657   7.5293291
   8.6965573   9.6022260   8.8333791   8.9200419   9.6230692   8.0822676
  12.7939332  25.9320910   8.1098550  13.1769598  25.2574987   7.7106612
  13.2425630  26.0118539   8.8538354  12.9167855  25.8442218   8.1607883
   5.7802409  19.5882685  18.7985354   5.7574898  20.4126830  19.0830760
   5.1834774  19.1848428  19.2907362   5.6887257  19.6504576  18.9132755
   2.2715205  24.0511227  10.3889990   1.5470225  24.2583585   9.9493456
   2.8958431  24.5031595   9.9803138   2.2567225  24.1485095  10.2636814
  16.4266419   0.5384574   4.5483725  16.1621368  -0.1489844   5.0159209
  17.2275758   0.3124938   4.2864840  16.5058839   0.4035316   4.5787542
  14.5270491  11.1956990  22.7419090  15.0359786  11.8937111  22.8640175
  13.7300551  11.5372598  22.6455951  14.4844961  11.3492656  22.7457190
  18.5661542   4.4779212   5.5846113  17.9727399   3.9863450   5.9936959
  18.5173022   4.2109473   4.7554681  18.4712779   4.3658669   5.5225599
  22.1906877  21.0326130  19.2265684  21.9938779  21.0892947  18.3785135
  21.6192579  21.5715582  19.6062309  22.0772028  21.1206002  19.1573794
  18.3992707   3.8201373  22.0533228  18.7837874   4.5866220  22.2139120
  18.7968241   3.2719605  22.6034069  18.5147988   3.8523858  22.1583033
   8.0311655  17.4338388   4.1836497   7.2833465  17.4140584   4.6325633
   7.7907728  17.7256596   3.3974024   7.8851865  17.4740243   4.1338202
   4.2832912  28.7765408  19.9696898   4.9627412  28.2362890  19.8824191
   3.5971988  28.2389235  20.0068855   4.2823089  28.6173177  19.9622929
   4.0004288   3.4576733  22.5111127   4.3770301   2.7939565  22.9339528
   3.2000386   3.1596906  22.3330069   3.9378273   3.3156116  22.5472641
  33.4158969  10.2218015  13.6678767  33.0686188   9.8083002  14.3531168
  32.8331041  10.8455331  13.4877384  33.2785058  10.2528555  13.7424898
  19.4895971   7.4598615   3.5301119  20.1734018   7.9972475   3.4610575
  19.7341323   6.8951433   4.1485226  19.6267319   7.4558227   3.6112630
  12.2643315   3.1971581  17.9898820  11.7504822   2.7881534  17.4155889
  12.8467404   3.6086876  17.4873052  12.2744595   3.1975300  17.8308044
   6.8096775   7.1814554  27.1708117   7.3997247   7.3617427  27.7876435
   6.7699283   6.3099353  27.1734319   6.8909681   7.0793455  27.2623191
  32.5316072  11.4629443   9.8671634  33.3581734  11.7419774   9.8753292
  32.5905395  10.6388075  10.1472790  32.6624131  11.3824208   9.9097473
  21.8045438  28.3355594  15.5332172  21.5217472  28.1447721  14.7302449
  21.7622829  27.5716424  15.9524822  21.7565251  28.1945300  15.4765356
  19.1235530  16.0864551  14.0370989  19.2935205  16.8451054  14.4329524
  18.6564755  16.3198883  13.3381808  19.0796638  16.2330062  13.9923298
  14.2603181  35.6575704  27.3235943  13.4278558  35.5141306  27.5416844
  14.4280885  36.4444566  27.6609432  14.1621278  35.7526207  27.4056443
   8.1102741   7.1108754  24.5037103   7.7272183   7.2387369  25.2770519
   8.7512469   6.5468414  24.6830392   8.1483740   7.0464451  24.6444392
  27.2769809  12.0982821  10.7434022  26.9506669  12.4150593   9.9988806
  26.5765023  12.0202453  11.2575805  27.1253037  12.1335490  10.7093751
   3.9429056  20.9931197  24.7681172   3.9904844  21.1786046  23.9169581
   3.0924856  21.0691609  24.9474079   3.8243090  21.0317530  24.6688683
  19.3419243  34.0289848  19.6439910  18.9827646  33.3255117  20.0144935
  20.1917673  33.9429824  19.8215044  19.4144083  33.9123600  19.7249448
  20.3957783  25.6160338  28.4673102  21.2551009  25.6431873  28.6155159
  20.2335393  26.3714183  28.0620796  20.4987513  25.7316310  28.4293444
  29.5226068   0.4124493  25.8130963  30.3141475   0.1226397  25.5881245
  29.0838290  -0.3169462  26.0043986  29.5747171   0.2618917  25.8081228
  16.1043619  17.2714877   4.1356555  15.2733110  17.4837029   3.9761287
  16.3084672  17.7526104   4.8342270  16.0117506  17.3739088   4.2152834
  19.3628431  10.7351718   6.1114580  18.6236096  11.0499511   6.4514334
  19.1455556  10.5456958   5.2880342  19.2215443  10.7536826   6.0400421
  16.5954768  25.5752873  19.2403541  15.9376132  25.3817511  18.7010036
  16.9977032  26.2397861  18.8431154  16.5577161  25.6448579  19.1019998
  12.8582729  14.4718683   3.9693117  12.3904479  15.0641036   4.4069588
  12.2640742  14.0630138   3.4784916  12.7013911  14.4989574   3.9614570
  23.0231415  23.3521094  27.3152964  22.9904830  23.7179246  26.5239348
  23.0669200  24.0356841  27.8556221  23.0247866  23.5071292  27.2782131
  19.1227412  26.2694788   0.5938537  19.6535563  25.9565020  -0.0237387
  19.6183240  26.8511486   1.0148031  19.2743611  26.3091707   0.5648048
  31.2821795  32.4484062   8.2991011  31.7562415  32.9359341   8.8456566
  30.6721856  32.0968604   8.8143308  31.2620999  32.4684954   8.4559471
   4.1601621   5.8256452  28.5033706   3.3101022   5.9352129  28.6662560
   4.5356404   5.9491556  29.2811233   4.0900575   5.8600729  28.6423222
  27.3882336  34.8321867  11.6550124  27.7379204  34.5334983  12.3963916
  28.0384088  35.2844882  11.2891769  27.5359333  34.8548770  11.7104876
  11.8768811  12.3669226  22.4629109  11.6247189  12.8981049  21.8183946
  11.2812197  12.5028856  23.0856799  11.7516398  12.4654729  22.4596982
  14.1894425  24.2164683   3.1757396  14.4207145  24.0950727   2.3433241
  14.0879930  25.0808501   3.2364875  14.2086197  24.3262219   3.0617484
  28.5820532  19.5702214   8.1133063  28.9036155  18.8260467   7.7909095
  28.5625076  20.1018305   7.4218209  28.6266661  19.5388205   7.9635341
  30.6779320   3.7903016   5.8365996  30.8673016   2.9587071   5.6529529
  29.8141945   3.8341634   5.7218249  30.5783138   3.6739366   5.7925160
  15.3022467  17.1512461  14.6765406  14.6125352  16.9593418  14.1779263
  15.7438361  16.3997531  14.7138531  15.2655970  17.0118868  14.6083958
   2.8665889  21.3513494   9.9408293   2.9267181  22.1815753  10.2020729
   2.6333583  21.4164209   9.1026711   2.8410185  21.4836025   9.8556072
  13.1304490  10.6907241  24.9453878  13.6229312  11.0045641  24.2972326
  13.4436833   9.8860328  25.0698662  13.2494675  10.6182163  24.8680305
   5.1232874  35.9965825   7.0419317   5.3647649  35.2528453   7.4288172
   5.2971946  35.8550835   6.1987984   5.1846468  35.8658147   6.9745344
  20.2287817   5.6458633  27.2821314  20.5508208   6.2450426  26.7358620
  20.9178090   5.1425045  27.4638254  20.3781366   5.6600158  27.2282774
   2.8971636  15.1310003  12.7487959   2.3442399  15.4047000  13.3656420
   2.8719556  15.7681561  12.1533646   2.8117620  15.2655530  12.7519621
  25.1122344  17.4294794   1.3275971  25.8478541  17.4034321   1.7959179
  25.1602579  18.1953990   0.9126248  25.2279950  17.5387740   1.3354792
   1.8880879  32.7294128  23.3017397   2.3287141  32.1438568  22.8283334
   1.1419212  32.3194711  23.4923220   1.8429553  32.5823562  23.2599616
  12.4110687   4.4027102  28.2289362  12.2562563   3.6949593  27.7428699
  12.7634275   4.0778363  28.9579368  12.4402499   4.2501703  28.2648230
  32.7094626  17.2463036   5.7267678  32.3667184  16.7757475   5.0769663
  32.7352754  18.0557764   5.4023808  32.6626453  17.2963679   5.5828601
  25.0893044  27.5304239  29.4388706  25.5439806  27.9633968  28.8331110
  25.6692529  26.9673793  29.7671683  25.2421403  27.5112074  29.3978817
  29.1906942  10.8216715   8.9929849  29.7131831  10.1385367   9.1395128
  28.6218686  10.7903111   9.6537369  29.1838492  10.7161260   9.1122371
   9.6270119  14.7484844  29.0038646   9.1974293  15.3747718  28.5744915
   9.2031275  14.6934002  29.7644079   9.5009362  14.8328655  29.0527852
   8.1094545  22.1817746  12.9524069   7.7424729  22.4191727  13.7074607
   8.5119450  21.4324870  13.1465965   8.1146997  22.1061578  13.0926292
  25.2922631  35.4059141  17.7292853  25.0765700  36.2403839  17.8644698
  25.5141867  35.1202028  18.5231738  25.2931834  35.4869764  17.8665285
   1.8434798  10.1019514  16.8539315   2.5614678  10.2670503  17.3212366
   2.1504413   9.7083336  16.1384039   1.9948851  10.0681949  16.8172639
   3.1877243  34.3707728   5.0032871   3.8452350  34.8998070   4.7820609
   2.8456461  34.7527981   5.7091062   3.2343208  34.5053554   5.0748699
  27.6278222  30.6488991  16.6608844  27.2948260  29.8553658  16.5175043
  27.2274256  31.1493897  16.0690008  27.5194848  30.6056118  16.5522705
   9.4888562   8.6368339  16.1434252  10.0665402   9.1092508  16.5953619
   9.7243696   7.8129881  16.3075764   9.6089822   8.5849207  16.2344343
  22.9654574  30.9331430   9.1249710  22.4626493  31.4375911   8.6211306
  23.4200978  30.4585035   8.5512465  22.9583406  30.9375463   8.9657927
  13.2858073  18.4330177  24.0045547  12.8014743  19.1437519  24.1509162
  14.0631377  18.7576640  23.7776147  13.3290898  18.5859644  23.9926516
  29.6792936  16.0651510  26.1798787  28.8747382  16.3271778  25.9673429
  29.5446825  15.3192060  26.6118407  29.5405602  15.9936683  26.2122917
   8.2237035  29.5778025  14.6549022   9.0581965  29.4329734  14.4456506
   7.7961254  29.4266261  13.9096081   8.2838130  29.5340766  14.5138955
   9.1105784   9.3025668  20.3632832   8.7294496   9.9950058  20.7326150
   8.8475765   8.6347849  20.8593059   9.0154279   9.3062098  20.4911137
   5.6272279  10.9281933  28.4297402   4.8474108  10.8697248  28.0429489
   6.1377346  10.4172218  27.9404242   5.5874454  10.8440757  28.3003218
  22.0247078  26.9526210  23.3851743  22.3178720  27.0276704  22.5669074
  22.7009344  27.2145762  23.8701844  22.1679068  27.0024028  23.3359456
  14.0034056  14.3397570  20.7969080  13.5930312  14.7633147  21.4398163
  14.7940291  14.7082436  20.7804429  14.0595759  14.4567585  20.8894466
  11.4849126  35.6144112  28.6119032  11.4225518  36.2138462  27.9810882
  10.7369744  35.7016867  29.0524793  11.3652121  35.7158525  28.5838008
  19.3817078  19.8394299  22.6120608  19.6339547  19.0482521  22.3445713
  19.1521680  19.7111964  23.4439307  19.3850600  19.7036135  22.6954316
  15.8055388  34.0635171  19.9105726  16.0127341  34.8862404  20.1138912
  16.4299618  33.5930594  20.2977501  15.9283816  34.1155539  19.9978004
  33.7138414  32.8030879   3.3402094  32.9615197  32.4124647   3.5465223
  33.8073378  33.4089960   3.9609131  33.6165193  32.8348900   3.4623766
   6.4672983  15.2861786  23.4341669   6.3834942  16.0265863  23.8879442
   6.6708792  15.5596840  22.6311159   6.4849914  15.4359543  23.3825707
  12.2278379  11.4123559  14.5862591  12.0392345  11.4710903  15.4360354
  11.9372581  12.1670806  14.2590046  12.1570514  11.5325201  14.6634459
   1.2732447  13.0794060  17.3427820   1.4273179  12.3996842  16.8180168
   1.0381664  12.7077079  18.0962527   1.2612785  12.9240894  17.3765671
  24.1508532  12.9559731   6.0643162  24.7520090  12.6674473   6.6269030
  24.2916317  13.8165438   6.0371317  24.2604525  13.0404758   6.1434044
  30.4996750  27.4154806  19.7423727  29.6407080  27.2633171  19.7550852
  30.8068518  26.8116617  19.1926605  30.4181642  27.3038077  19.6630509
  20.6689811  11.7841585  23.7764626  20.1679373  11.1530430  24.1108059
  21.4776659  11.5429861  23.9978390  20.7144260  11.6553027  23.8585537
  10.3794562   2.9585059   5.4253066  10.2942788   2.9302795   6.2931126
  11.2324225   3.0987866   5.3073668  10.4928767   2.9750569   5.5360770
   8.3184075  11.2779682   4.2942016   7.5982702  10.8068864   4.4378059
   8.1849599  12.0037334   4.7595971   8.1923157  11.3155906   4.3841641
  10.9606254   7.9009891  18.8297355  11.5370440   7.7711219  19.4716191
  10.3056169   8.3211625  19.2241430  10.9490156   7.9438728  18.9828169
  25.4458882   0.9667604  22.9988892  25.4873158   0.1839273  22.6160128
  26.2703587   1.2509887  22.9743798  25.5737998   0.8931058  22.9387076
  30.3792310   7.2801798   2.5925524  29.9883533   6.5002124   2.5945575
  31.2133980   7.0920341   2.7654822  30.4447150   7.1371668   2.6183946
   8.1649531  27.5217361  16.9369781   8.6218251  26.8756969  16.5694976
   8.3666218  28.2177342  16.4511228   8.2622326  27.5291164  16.8109226
  22.6340758  10.4823196  10.7818222  23.1979214  10.7469666  10.1709378
  21.9460475  11.0062540  10.6667101  22.6157319  10.5988097  10.6745768
  24.7434599  28.0592179  22.9587987  24.3041379  28.6091256  23.4742978
  25.4980756  27.9413581  23.3804658  24.7900350  28.1230402  23.0972389
   1.6597910  17.3550334  28.7667227   0.9577455  16.9248929  28.4781957
   1.7405818  18.0167451  28.2039165   1.5680189  17.3892417  28.6409640
  18.2388401  18.1960733   0.6287877  17.9194438  17.3842282   0.6229489
  18.9369905  18.1381054   1.1487549  18.2947910  18.0675835   0.7047351
  27.1382428  25.6653070   9.5957344  27.4988664  26.3285470  10.0330012
  26.4033694  25.5038834  10.0373714  27.0829583  25.7394361   9.7255676
   7.2155511   3.2613008  23.8627635   7.1883952   2.3921793  23.7918459
   6.7039668   3.4271448  24.5497237   7.1359669   3.1574123  23.9537654
  17.0276070  19.1733551   6.6115093  17.6321150  19.3783581   6.0167962
  16.2755287  19.2605066   6.1780089  17.0058072  19.2165124   6.4596212
  10.9737647  13.5181301   2.2255046  11.3889825  13.6544244   1.4704163
  10.6978405  12.6929300   2.1618325  10.9943414  13.4163635   2.1045572
  12.3079705  14.0408390   8.6304753  11.6544271  13.4630602   8.6165612
  12.3951983  14.2315166   9.4773357  12.2243142  13.9836567   8.7535184
  11.2937724  28.9271660   1.4107480  10.8370768  28.8728018   2.1521058
  11.6335046  29.7302873   1.4375271  11.2764966  29.0377725   1.5242161
   3.9034939  12.7373493  15.2884943   4.3370861  12.4442887  14.5904572
   4.3553215  13.4438860  15.5289013   4.0342885  12.7984273  15.2208931
   6.6600031   5.6750076  12.0394676   7.0472854   5.6015270  12.8177696
   6.7323279   4.8754137  11.6980510   6.7278963   5.5460374  12.1040051
  12.8899181  34.6107793   0.8013695  12.2843671  35.0279140   0.3318517
  13.5482836  35.1818657   0.8407896  12.8977203  34.7567606   0.7378357
  29.4942871  28.2303207  22.6620150  29.3612844  28.7642353  21.9849753
  28.6910845  27.9635303  22.8737426  29.3559901  28.2697790  22.5932789
  16.0976422  27.6172400  12.9096317  15.9062696  26.8033814  12.6603281
  15.3361046  28.0373049  12.8407466  15.9568775  27.5590682  12.8626287
   4.7775877   0.8555286  27.0722604   5.4957093   0.5871885  27.4887156
   4.4527162   1.4704840  27.5989723   4.8356808   0.9067314  27.2115850
   2.5538701  20.6517243   7.1260088   3.2872614  21.1241150   7.1370976
   1.9458419  21.2228465   6.8705457   2.5723889  20.8058739   7.0899098
  10.3854883  15.4917448   4.8979037   9.5930827  15.6184881   5.2402013
  10.4667676  16.1423271   4.3223374  10.2804411  15.6065719   4.8634451
   9.6519410  25.6685741  15.4354632   8.9509761  25.5241747  14.9365246
  10.1468693  24.9623961  15.3031945   9.6215045  25.5429263  15.3422201
  17.9355169  30.5493450  11.1861925  18.7868143  30.6290412  11.3596325
  17.6439203  31.3713169  11.2079017  18.0181957  30.6825399  11.2150197
   3.8710558  25.6007917   8.7469548   4.1848859  25.3104324   7.9864669
   4.5185587  26.0938538   9.0612310   4.0130645  25.6307347   8.6810404
   2.1450815   6.6531926  16.0941005   2.3136480   7.3815084  15.6443429
   1.3630217   6.8074435  16.4486825   2.0544559   6.7835659  16.0800409
  16.9074917  26.9126003  16.1043913  16.2173724  27.2967069  16.4749844
  17.2097540  27.5194948  15.5553372  16.8501973  27.0589893  16.0780270
  13.6752057   2.9029813  26.1257201  13.6726904   3.4480395  25.4445108
  14.3170559   3.2092108  26.6310846  13.7696493   3.0287328  26.0997440
  10.3810965  20.1714427  20.3854871  10.8932053  19.6195907  20.8263302
   9.5755898  19.8791034  20.5493045  10.3377568  20.0467391  20.4748082
  23.9742018  24.6011121  22.5002902  24.1118647  24.8378856  23.3286183
  24.3147923  23.7990792  22.4568926  24.0448500  24.5176120  22.6162403
  24.2032792  33.8783454   2.9823201  24.1951300  33.0059589   2.9784577
  25.0216843  34.0748232   3.2119959  24.3229701  33.7784998   3.0156772
  31.1521173  25.0057514   9.7328919  31.8221688  24.7151036   9.2557198
  30.4746723  24.5405156   9.4400382  31.1510253  24.8940916   9.6191430
  32.9635023  28.0808182   7.9750222  33.8292287  27.9868926   8.0282134
  32.8352998  28.9195413   8.1781155  33.0724500  28.1908400   8.0128807
  20.8429837  13.9817500  14.1625214  20.5098629  14.7872496  14.1258979
  21.5963006  14.0513587  13.7280035  20.9050560  14.1110218  14.0929234
  14.6766567  19.8590136   5.1731260  14.7039580  20.0114918   4.3145568
  14.1062093  19.2030549   5.2469332  14.5964217  19.7846389   5.0572021
  11.2246573  20.2799773  24.3662267  10.5433416  20.0678682  24.8681819
  11.6115928  20.9254098  24.8076313  11.1811709  20.3439879  24.5055806
  10.4606520   0.3204019  21.2241139  10.7901227   0.4680259  22.0183434
  11.1009919   0.5700714  20.6867470  10.6039130   0.3790910  21.2620606
   8.0214840   0.8542841  20.4518342   7.4450409   0.9368937  21.1014724
   8.7786919   0.7233207  20.8649015   8.0481869   0.8471410  20.6088185
  16.8307053  28.4741354  19.2008669  16.0493600  28.4842086  19.5888598
  16.8023335  29.1617250  18.6646254  16.7110907  28.5771942  19.1789658
   2.0642541  24.1772468  13.2522665   2.2286358  23.9557237  12.4245916
   1.2728624  24.5424063  13.2135807   1.9716319  24.1984649  13.1242881
   7.7629852   4.3933436  21.2932801   7.2026145   4.1437781  20.6729245
   7.5374335   3.9066336  21.9813061   7.6468885   4.2845806  21.3032770
   2.7194118  17.9305089   8.4320767   2.6598987  18.7733650   8.2148440
   1.9310828  17.7463329   8.7572772   2.5941682  18.0278099   8.4480245
   8.2079232  32.8944339  13.2981949   8.0305839  33.7351336  13.1468170
   7.6184464  32.6654353  13.8992064   8.0946481  32.9847946  13.3646159
  29.2266677  27.9220600  26.8937420  29.3646530  28.5543270  26.3086455
  29.9010617  27.3815651  26.7745855  29.3466730  27.9356165  26.7897092
  28.4407074   4.3788259  16.7388136  28.2814641   3.9661043  17.4907715
  28.6988340   5.1730030  16.9913799  28.4553147   4.4351738  16.8872053
  26.8962836   3.9453265  25.1316677  26.0488319   4.0779307  24.9723540
  27.2692847   4.6985254  24.8977838  26.8261957   4.0761778  25.0735841
  28.7316108   5.1744812   3.2948535  28.5311341   5.1367157   4.1430991
  28.0436397   5.5761211   2.9391592  28.6003685   5.2282350   3.3676141
  14.9715792  21.1855192  25.2446722  15.5855738  20.6962986  24.8641293
  15.4042041  21.9013984  25.4926535  15.1261842  21.2190003  25.2250900
  20.2750492  31.0306978   7.7662158  20.2489257  30.1886916   7.9931086
  20.0262833  31.4464641   8.4917462  20.2344418  30.9677339   7.9069084
   6.0277015   6.0919445  16.9327051   5.7714701   6.7263429  16.3913853
   6.2663019   6.5213983  17.6536638   6.0250968   6.2490957  16.9592459
   6.8472742  12.6145518  11.3500881   7.0219730  13.3213854  11.8307185
   6.3001607  12.9120445  10.7391000   6.7922615  12.7629113  11.3308311
  23.5063101  11.0827797  15.7623780  22.8628089  11.5979116  16.0481799
  24.2077614  11.3731067  16.1922753  23.5148694  11.2017601  15.8681023
   4.5734846  29.3909574  23.5584194   5.1505815  28.7395644  23.4968741
   4.8560297  29.9714565  22.9716284   4.7004711  29.3804860  23.4626467
  24.3025398  14.0347116   0.9838643  24.5287991  14.8673074   0.8545365
  24.3238378  13.9487951   1.8517937  24.3391085  14.1450088   1.0929741
  30.1199231   3.0157607  26.7411835  29.6676967   2.8681891  27.4725229
  29.9981008   2.2888034  26.2744600  30.0351245   2.8865760  26.7802698
   8.0480612  35.6037474   3.7067236   8.8383020  35.7725358   3.3778347
   8.1614269  35.6898785   4.5674624   8.1815422  35.6414056   3.7852873
  20.0078284  29.3463578  21.2685418  19.7553956  29.1263118  22.0741439
  19.7092139  28.6924376  20.7742119  19.9264275  29.2172541  21.3145232
  31.2285658  28.9214785  13.1646323  30.8944757  28.5811372  12.4340916
  30.5567674  28.9121533  13.7211752  31.0799753  28.8698257  13.1389284
  18.2941519  22.2086968   7.7215767  19.1107308  22.4813189   7.5800866
  18.2528722  21.4517703   7.2897232  18.4086787  22.1371569   7.6368821
  13.2028662   4.5678823   9.8977607  12.3364150   4.5424478   9.7989684
  13.4110009   5.3848951   9.6734595  13.1056201   4.6848123   9.8500335
  22.6925588   4.4314401  28.1976106  22.8631426   5.2237241  28.5206074
  22.4634302   3.9683120  28.9005693  22.6839102   4.4800632  28.3491652
  33.3890282  17.8158529   8.4419506  33.3228432  17.8104944   7.5720494
  32.7727210  18.3808632   8.6910885  33.2882106  17.8985245   8.3502524
   6.3759147  30.8660627  29.4391949   5.5873143  30.9668164  29.7984937
   6.5004765  30.0027431  29.4565875   6.2778222  30.7534159  29.4948400
   3.7781439  26.1765003  22.4811292   3.4155569  25.8844662  23.2189536
   3.8438807  27.0366549  22.6113296   3.7342940  26.2604237  22.6093531
  19.9676371  14.7702377   0.6281311  20.4803944  14.4646280  -0.0081270
  19.2109561  14.9283092   0.2236731  19.9316049  14.7484462   0.4743964
  30.4693877  18.1363249  17.9460175  31.2192094  17.7208388  17.7839119
  30.1464402  18.2943738  17.1511204  30.5324446  18.0982959  17.8046496
  31.1205912   1.7531759  12.4381202  30.4237413   2.2739242  12.3720651
  31.6691518   2.0673092  11.8368392  31.0986876   1.8765050  12.3395412
   0.8190368  18.2198252  24.1763139  -0.0269858  18.1702246  24.3834972
   0.8494546  18.8665786  23.5915709   0.6985552  18.3080401  24.1205406
  17.7546250   7.6650827  15.7099278  17.7340447   6.9505994  15.2097065
  17.0663487   8.1264990  15.4369623  17.6499116   7.6276987  15.5957110
  27.1310115  30.6191153  10.5543930  27.7896762  31.1719821  10.7014925
  27.5278640  29.8480887  10.4586632  27.2869349  30.5868889  10.5619795
  10.3377188  11.1340349  11.5446298  10.1347960  11.6687458  12.2034495
  11.0335577  10.6988399  11.8405252  10.4105318  11.1487358  11.6856616
  33.5225727  29.8603504   2.3088660  32.9595543  29.2412727   2.0621027
  33.5661580  30.3866069   1.6143908  33.4458400  29.8466365   2.1698250
  21.3634003  20.8316202   5.9774191  21.2571252  20.1456268   6.5058667
  21.1775900  21.5144033   6.4877326  21.3202537  20.8311458   6.1308653
   8.1215561   1.1573465  26.7613871   8.9302552   0.8528645  26.6412432
   7.7205575   0.5112941  27.1891196   8.1817807   1.0169322  26.8068249
  32.3710980  18.4962165  13.4594427  32.6909877  18.5595274  14.2686401
  32.4143954  17.6418889  13.2880102  32.4247482  18.3793664  13.5536514
   1.6114995  32.9006546  16.5615303   1.6402818  32.7366893  17.4179346
   2.0846212  33.6286562  16.4760382   1.6856410  32.9839771  16.6754086
  28.3969445  21.9322586  17.4215681  29.0637023  21.4461207  17.1382935
  27.7470047  21.3571095  17.5105698  28.3994288  21.7754841  17.3928721
   4.4109260  18.4583831  23.3236348   4.5948540  18.0334187  24.0630363
   3.8294517  19.0595925  23.5717802   4.3521988  18.4844184  23.4695159
  19.2210842  29.2992990  29.6118866  19.0422321  30.1079385  29.3375717
  18.6674929  28.8013189  29.1572533  19.1128875  29.3451898  29.5042048
  26.0639407  31.1959999  27.3652298  26.6848303  31.7127102  27.6948530
  25.3674962  31.3702839  27.8609402  26.0527779  31.2980764  27.4871475
  13.2513212   1.4471650  12.1916395  14.0270589   1.0718755  12.3277967
  13.0929159   1.2905580  11.3481229  13.3425115   1.3685930  12.0871477
  16.4597308   7.4810093   2.4288158  15.8316886   7.5300949   3.0323848
  17.0909011   7.0281427   2.8258991  16.4601933   7.4213617   2.5766328
  17.6623500  14.7486560   6.6323103  16.8271459  14.6304529   6.8550219
  17.6451815  14.7405784   5.7600846  17.5364364  14.7300022   6.5363659
  31.9739567  12.2161603  27.2612272  32.2256171  11.3907135  27.1329961
  31.4107453  12.3622429  26.6111527  31.9279324  12.1158040  27.1462570
  24.8448586  15.6054497   5.0215895  25.4718661  15.0305426   4.8279841
  24.1231942  15.2395523   4.6953065  24.8308754  15.4664731   4.9447925
   9.0280949  30.4662396  17.6447642   8.8271510  30.7297076  18.4518242
   9.6714913  31.0054422  17.4071860   9.0934550  30.5848105  17.7288890
  19.9253906   7.0289588  11.3414872  19.1485239   6.6368991  11.2789869
  19.9003244   7.4100512  12.1258843  19.8069287   7.0273387  11.4481270
  25.2788186   6.8943756  16.8380867  24.5054221   7.2068756  16.5824686
  25.6712365   7.5861757  17.1966444  25.2225423   7.0427339  16.8532930
  25.5944575  31.8667675  14.5033550  25.2654708  31.9778369  13.7029982
  25.0460518  31.2980736  14.8734605  25.4648489  31.7991669  14.4397986
   4.0959799  30.7574480  17.7869189   3.8015038  30.4768865  18.5587406
   4.6777272  30.1496523  17.5560689   4.1384158  30.6262224  17.8668320
   5.3400695   6.2498539   0.7500393   5.8994853   5.6002729   0.5880482
   4.9591409   6.0108678   1.4976461   5.3664362   6.1185949   0.8365471
   7.6334060   2.8012116  29.0120411   8.3343113   3.2788260  29.2163777
   7.8569568   2.4203427  28.2596445   7.7699650   2.8155024  28.9310813
  14.2462576   7.5594026  -0.0041659  13.5231627   7.8281349   0.4033344
  14.8398579   8.1605512   0.2135461  14.2271281   7.6879019   0.0881927
  15.1096642  30.8636106  27.3223424  15.5679977  31.3094343  26.7287850
  14.7088718  30.2478517  26.8518686  15.1181650  30.8385075  27.1651626
  18.9276648  27.8313460  27.3136759  18.2230163  27.4938693  27.7019048
  18.8224018  27.6163211  26.4747334  18.8080240  27.7497306  27.2470951
  30.6020570  20.7504344  16.5300667  31.3731360  20.4422235  16.7976117
  30.2356696  20.0671721  16.1299968  30.6618381  20.6039739  16.5104902
  28.2609212  16.5439916  18.0493391  28.6195361  15.7491899  18.0780327
  28.9154135  17.0727885  18.2798910  28.4105765  16.5046966  18.0876350
   1.2761842  19.6658862  12.1041982   0.4072868  19.5881963  12.1151774
   1.4230620  20.2357173  11.4601045   1.1695277  19.7385859  12.0106738
  14.3061686   6.9570940   9.0533435  14.0233493   7.7407282   8.7943673
  14.6832716   6.6285722   8.3384955  14.3200958   7.0243232   8.9094895
  31.1964547  11.9372725  16.7002690  31.4188992  11.6167045  17.4805856
  31.5335929  11.3614178  16.1382449  31.2791192  11.8048525  16.7325151
  10.9232127   6.1323936   4.4110316  10.1958548   5.6571586   4.4900355
  10.6614005   6.9418294   4.6044353  10.7770907   6.1817629   4.4512719
  10.6455170  31.9213436  13.8106942  10.7433593  31.7380486  14.6580255
   9.8580491  32.2948046  13.7712061  10.5436455  31.9494353  13.9300299
  14.2371428  12.2862947   5.4792540  14.5750594  12.6148450   6.2134259
  13.5645294  12.8150284   5.3084629  14.1877007  12.4129331   5.5624764
   4.8477518  26.3090158  27.2595247   5.2904855  27.0530939  27.1524235
   4.3225514  26.4782667  27.9352902   4.8355710  26.4439344  27.3435282
  31.3792264  23.5308964  19.8547203  31.3053281  22.6639111  19.7913487
  30.5559046  23.8122005  19.7903139  31.2466886  23.4443791  19.8358423
  23.2195330   6.8567024  29.5484829  24.0143347   7.1555743  29.3482184
  22.7363300   7.5808845  29.6051526  23.2655621   7.0078264  29.5272708
  14.4354773  22.6956432   9.9621212  13.9728845  22.3612421   9.3023306
  14.1579414  22.2455709  10.6560576  14.3261445  22.5797575   9.9671656
  21.9936692  24.9825788  11.6004944  21.4815509  24.8737335  10.9026217
  21.6957223  24.3906212  12.1679032  21.8740069  24.8790574  11.5812218
  29.1951511  13.9115739  18.0272329  29.4457496  13.1939423  17.5990450
  28.9846820  13.6144149  18.8200378  29.2010788  13.7616682  18.0810940
  11.6623569   7.5636339  10.2247364  11.1783648   7.1212488  10.8002264
  11.5719676   8.3941466  10.4761727  11.5775084   7.6209682  10.3468926
   6.7941309  33.6267202  19.5070761   7.4610926  33.1288164  19.7685998
   6.8848397  34.3552368  19.9784260   6.9060542  33.6607902  19.6153360
  11.4178406  27.0027566  21.9935613  11.8183171  27.0013404  22.7686458
  11.0704695  26.2042093  21.9406914  11.4256846  26.8845868  22.1002471
  16.7959248  28.1950450  10.2554035  17.3409259  28.8653326  10.3771830
  16.4592540  28.0577087  11.0484576  16.8266999  28.2737732  10.3905427
  22.4160600  35.7368016   8.6670291  22.7043819  35.9963250   7.8855830
  22.9408669  35.0694895   8.8680547  22.5361753  35.6765628   8.5812891
  10.1353585  31.8603186  27.6517539  10.4903971  31.1299420  27.9705585
  10.7065903  32.1180982  27.0448100  10.2721869  31.7905063  27.6091897
   9.0606473  35.8214994  29.9854929   8.9980958  35.0641620  30.4140551
   8.2633422  35.9335210  29.6494944   8.9336275  35.7261730  29.9991638
   0.3699624   0.8358605  24.8594315   0.7017695   0.6441934  25.6432087
   0.8997976   0.4198272  24.3050606   0.4972445   0.7460911  24.8933203
  28.7441207  19.5155018   1.1370709  28.1853177  20.0815504   0.7786433
  29.0838052  19.9590032   1.8071887  28.7117507  19.6646326   1.1831139
   7.3746765  32.7083530  27.6423906   7.0502103  32.1250548  28.2041930
   8.1968940  32.4423828  27.5225650   7.4482048  32.5828995  27.7076798
  15.8847773  32.5178170   9.2387772  15.4658461  31.8025374   9.5108294
  16.2320256  32.8428173   9.9701685  15.8741879  32.4601650   9.3870062
   5.0221413  22.0427210   6.6778772   5.1282221  21.6639812   5.8991330
   5.8171123  22.0033879   7.0351069   5.1552451  21.9809635   6.6156094
  23.0578362  31.2628449  17.7802789  23.1648337  32.0954932  17.5428188
  22.2051560  31.1230947  17.6596844  22.9476868  31.3652001  17.7273870
  14.6365536  25.2649398  21.0036772  14.2278076  25.9499253  20.6503194
  15.4566801  25.3452725  20.7171839  14.6973229  25.3779931  20.9091579
  17.9320037   0.3769033  16.5596991  17.3099839   0.8501403  16.1720352
  18.6544930   0.8513801  16.4412968  17.9468476   0.5169003  16.4849429
  20.5115652  14.0546114  22.2627306  20.6885791  13.2703073  22.6013660
  20.5852461  13.9280755  21.4026737  20.5485988  13.9200599  22.1857047
  19.5288050  27.3826195  19.3289869  18.7041557  27.6421888  19.2118602
  19.4704711  26.7994536  19.9752491  19.3983698  27.3348178  19.4071512
   8.9509016  28.2336838  21.3486654   8.4229189  27.9957188  20.6961710
   9.7110754  27.8570218  21.1451943   8.9852011  28.1428904  21.2222225
   4.0695345  13.3268356  10.5297904   4.1250025  14.1461635  10.2352314
   3.8100135  13.4234118  11.3571124   4.0393912  13.4621334  10.6084912
  16.1619842  10.2349615  26.4513898  15.5824697   9.7206992  26.0503435
  16.7254424   9.6712798  26.8062377  16.1596119  10.0757265  26.4445662
  27.6830484  31.5526725   2.9962149  28.4372140  31.7516745   3.3870792
  27.1179034  31.4946602   3.6583218  27.7109696  31.5734995   3.1517604
  11.0742462  34.0426324   7.3145235  11.0771573  34.4419524   6.5388465
  11.9199384  33.9012630   7.4756378  11.1996020  34.0807370   7.2237402
   6.9584608  11.5497606   7.3614373   7.5611961  10.9192341   7.3445286
   6.2060547  11.1126583   7.4244084   6.9363517  11.3920515   7.3682417
  26.4616656   6.8193166  19.6733837  26.0937190   6.3885420  19.0099161
  26.2859392   7.6555936  19.4975977  26.3813543   6.8792169  19.5494085
   9.0964782  30.6014173  22.7727968   9.6377169  30.4422538  23.4382803
   8.9866626  29.8176115  22.4057324   9.1602074  30.4621189  22.8168804
  17.2801602  31.4301729  15.3412850  16.5601361  31.4804173  14.8512060
  17.5804961  30.6265402  15.1828129  17.2181642  31.3188815  15.2454788
   5.1549947  33.2433794  17.2125220   5.6006943  33.5141095  17.9119492
   4.8087393  32.4853642  17.4707067   5.1696836  33.1713973  17.3539805
  11.4735258  30.6198549  24.6204591  11.7292035  31.4162874  24.8683715
  12.2205496  30.2201009  24.4123936  11.6216457  30.6784511  24.6263456
  25.7030463  13.1160753   8.5495918  25.1756811  13.7826936   8.7461775
  25.2455187  12.4140470   8.7924307  25.5575585  13.1108444   8.6145036
  31.9853055  30.3046102  16.5579098  32.5179517  29.6342946  16.3902669
  32.2080790  30.8984376  15.9588437  32.0968997  30.2933116  16.4446514
   7.6773489  22.5496268   7.2497048   8.1651128  23.1740928   6.8846478
   8.2200111  21.8683243   7.2995581   7.8295649  22.5412297   7.2031416
  28.1499661  30.8401458  13.4800868  27.3005915  31.0241335  13.5565858
  28.1604422  30.1213424  12.9857700  28.0260438  30.7611435  13.4183662
   8.1896102  15.5622303   6.8030936   8.0584609  14.9378812   7.3981816
   7.7573716  16.2476969   7.1262748   8.1063878  15.5712581   6.9387419
  27.5761575  36.2051408  15.2520943  26.7858470  35.8446138  15.3331363
  28.0588806  35.5657261  14.9067438  27.5307203  36.0574310  15.2130497
  26.8048907  18.6403530  24.3349290  26.0033870  18.8244360  24.0436459
  26.6790146  17.9590290  24.8651075  26.6678972  18.5669010  24.3702173
   8.6559857  11.1009328  13.8733561   9.3066085  11.5427177  14.2510493
   7.9902757  11.6646593  13.8869078   8.6537588  11.2494676  13.9311487
  21.0205828   9.2086284  13.4661279  20.6148135   9.9529617  13.2600771
  20.8870827   9.1331689  14.3249784  20.9409224   9.3074339  13.5625587
  29.5041752  26.3560264  13.4123218  30.3703403  26.2516849  13.4090376
  29.1992855  25.5392187  13.4440815  29.5870876  26.2199562  13.4165287
  19.3497086  17.4902201  28.0641007  19.0735853  17.8872168  28.7902471
  19.2275941  16.6432953  28.2342397  19.2908800  17.4237573  28.1965006
  17.8752387  16.3198204  25.5286312  18.3387530  15.9332712  26.1586094
  17.0777130  15.9786923  25.6220317  17.8258979  16.2123270  25.6354880
  17.4523045   5.0886184  14.4182956  17.0838477   4.6997723  15.1069033
  18.2450749   4.7266230  14.3781829  17.5149848   4.9777037  14.5140922
  11.8487228   9.1788638  26.9737172  12.0813216   9.6350753  26.2673831
  12.3486007   8.4651327  26.9307065  11.9569243   9.1408229  26.8630242
  25.8023352  14.2026935  28.2696438  26.2612659  14.3632732  28.9940333
  25.3667641  13.4713111  28.4606647  25.8057857  14.1183791  28.4048676
  10.9507965   5.4339344  14.7264421  11.7928289   5.2615054  14.8760545
  10.6434892   5.6535179  15.5128813  11.0297845   5.4409010  14.8647165
  16.4400364  35.5974140  22.5036509  15.9371974  36.3027324  22.6076872
  17.1374871  35.7677998  22.9992993  16.4687850  35.7267728  22.5922329
  32.0992955  10.5301833   7.4727476  31.7459608   9.7569191   7.6685965
  32.0791914  10.9626472   8.2301837  32.0441309  10.4798400   7.6135677
  31.7589498  23.1500101  24.8454485  31.2529540  22.9194975  24.1731582
  31.7265582  24.0218019  24.8371087  31.6794181  23.2447410  24.7449074
  30.5192200  27.8562093  10.5008369  30.5440599  27.0874286  10.0891345
  30.1583482  28.3915687   9.9140661  30.4695810  27.8217268  10.3533416
  24.7011066  11.2883675  21.7531473  25.3980047  10.8011699  21.9483692
  24.1293032  11.0894966  22.3813469  24.7195859  11.1870205  21.8747837
   7.7164429  19.3569362  20.8446598   7.3457849  20.0455618  21.2313724
   7.1597040  19.1575968  20.2032208   7.5794470  19.4292140  20.8070326
   6.3364977   3.0256668  10.6713516   6.6366363   3.0622712   9.8529870
   6.6882259   2.2919862  10.9862120   6.4327919   2.9226941  10.5969746
  10.6035829  27.8332217  18.0332833  10.0494552  27.1850349  18.2174986
  10.1033700  28.4215875  17.6273852  10.4478347  27.8243853  18.0005353
  16.6244160   6.9828826  21.5307393  16.3132655   6.1898226  21.3426461
  16.0016524   7.5213546  21.2420334  16.4864575   6.9452751  21.4603009
  24.5524823   8.1244034   4.6099272  25.2847802   8.0595642   5.0796938
  24.2352807   7.3116791   4.6112621  24.6137988   7.9947692   4.6795189
  28.2187129  23.9682443  14.8765785  28.1481368  23.3807809  14.2354519
  28.3690638  23.4817130  15.5849726  28.2304973  23.8095922  14.8865158
   3.7673062   9.2770260  22.1164203   4.2334130   9.8448579  21.6458368
   4.0392813   8.4997766  21.8282318   3.8763362   9.2460888  22.0043349
  16.3758361   6.1397474  26.8048995  16.8054759   6.8864887  26.9424843
  15.5471122   6.3435190  26.9860860  16.3168799   6.2801569  26.8519886
  22.6988888  14.2633789  12.2127545  22.8835368  15.0316541  11.8428946
  22.5746012  13.7324493  11.5317214  22.7078056  14.2984407  12.0575166
  10.2660643  22.4172926   9.8881476  10.2838647  22.8186917  10.6625514
   9.4315898  22.1784973   9.8000114  10.1454245  22.4413133   9.9895232
  30.5293202  34.9970102   3.2624211  29.9499464  35.3557181   2.7176346
  30.6033039  35.5870819   3.9007630  30.4546642  35.1371646   3.2762398
   2.1777651  27.8888004   2.5434685   1.5753821  28.3904998   2.1606250
   2.9325902  28.2227771   2.2609112   2.2002840  28.0122488   2.4451751
   3.4098792   2.7291410  10.0274529   2.9549271   3.4519522  10.2055087
   4.1526288   2.8396480  10.4715838   3.4523928   2.8522389  10.1193633
   0.4019947  28.1952500  15.9202133   0.4782639  28.1453896  15.0525508
   0.5467042  27.3770523  16.1862073   0.4346377  28.0670190  15.8313356
  31.5796026  31.8161924  12.4750626  31.3646334  31.1561067  13.0034709
  32.0799946  32.3256041  12.9763091  31.6217654  31.7939348  12.6271641
  13.5461365  14.8744988  10.9598577  13.4471690  14.3052030  11.6134989
  14.4000947  14.8393488  10.7847476  13.6576640  14.7852099  11.0305464
   6.9868387   9.1202753  17.2074461   7.8126086   9.1323393  16.9262016
   7.0543254   8.8367431  18.0297565   7.1187914   9.0801733  17.2873724
   6.6297185  17.5775111   7.9947919   7.2602450  18.0856824   8.3193451
   6.4117514  17.9726553   7.2481394   6.6906630  17.7109492   7.9324394
   3.2359492  35.1853292  16.4725051   3.8007843  34.6508091  16.8679653
   3.6401593  35.3971498  15.7289396   3.3790981  35.1376598  16.4210830
   3.5198233  25.5825991  17.6792843   3.9832351  25.9339089  17.0289213
   3.7410951  24.7390015  17.6564343   3.6209649  25.5098779  17.5798351
  32.0929575  27.0600193   5.1013963  31.2355185  27.1274631   5.2476399
  32.4441576  27.1509998   5.8948200  32.0181751  27.0834224   5.2402060
  14.9473811  31.1267679   1.6317231  14.1579343  31.3086908   1.9554765
  14.9859834  30.2557342   1.6625268  14.8364664  31.0249727   1.6840989
  25.7531630  22.0381784   6.5735943  25.1698720  21.7028975   6.0181672
  25.9055506  21.3841772   7.1305496  25.6895100  21.8920398   6.5738208
  10.5110419   4.0137777  10.1283009  10.4529977   3.5569564  10.8693011
  10.0074625   4.7105348  10.2768833  10.4280782   4.0492213  10.2597077
   8.1085790   0.7381756   9.3809295   7.6246393   0.5271656   8.6863679
   8.6868203   0.0870163   9.4335234   8.1225074   0.6108172   9.2860973
   5.3979880   6.8629426   3.7658055   5.0898427   7.3394001   4.4285066
   5.8805609   7.4306595   3.3119757   5.4237545   7.0171887   3.7966592
  31.1337029   5.1464527  15.1644053  31.3462292   4.3356197  14.9224867
  30.2878463   5.0844495  15.3688969  31.0401427   5.0175159  15.1588740
  23.1685448   3.5688489   8.0538351  23.1445861   4.3440788   7.6543529
  23.0654693   3.7691419   8.8966877  23.1497788   3.7129538   8.1193311
  17.2044349   2.3474780   6.7812879  16.9571996   2.1011434   5.9817035
  16.4525783   2.5479671   7.1758182  17.0568490   2.3407057   6.7214520
  20.1187169  30.0834530  13.7136398  20.4107939  30.8016126  14.1137348
  20.4031502  30.1752107  12.8939949  20.2038800  30.2030962  13.6516605
  13.4794080   2.4325149   6.1631566  13.6046015   3.2648556   6.3926643
  13.8549887   1.9827788   6.8095452  13.5533845   2.4890344   6.2925446
  29.3812704  29.2783403   8.4835041  30.1265025  29.6337581   8.2016438
  29.3008161  28.5581970   7.9976416  29.4794726  29.2244625   8.3700955
  10.8175349   1.7487567  15.9929717  10.3325307   2.1009462  15.3590369
  10.2268875   1.4539306  16.5633667  10.6586385   1.7572301  15.9835851
  13.5132134  12.9702067  16.4426310  13.3821678  12.5522935  15.6881029
  14.3819129  12.9820490  16.5223820  13.6221802  12.9102218  16.3429529
  19.0606154  13.0596413  12.2444332  19.5867682  13.5440030  12.7441287
  19.1417850  13.4182229  11.4532495  19.1503299  13.1841626  12.2013748
  25.0160081  21.2887263  19.1442614  24.1512681  21.3961649  19.1869407
  25.3012759  22.0473289  18.8213306  24.9304081  21.4166594  19.1028624
   2.0584118   5.0323725   3.8828087   2.1056163   4.6050557   4.6419609
   2.8581797   5.3671861   3.7858018   2.1835291   5.0187075   3.9806211
  28.9690084  13.3996391  12.6373732  28.8713253  14.2551064  12.4967539
  28.4333909  13.0334139  12.0541644  28.8754568  13.4719110  12.5304484
  26.9678688  33.6119152   8.5806768  27.2272754  33.7713325   9.3982547
  26.0977411  33.5937735   8.6414020  26.8776512  33.6327844   8.7104218
  13.0944122  31.1792040  12.4408591  12.9482330  31.1552978  11.5810919
  12.3182452  31.3962102  12.7749431  12.9581631  31.2077284  12.3632050
  16.3089644  14.9221151  10.2993238  16.9694554  14.4563310  10.6278622
  16.4636409  15.7302539  10.5893683  16.4293801  14.9726837  10.3907013
  26.9462347   1.4474664   1.4001375  27.2804332   2.0484004   1.9370997
  26.1314940   1.7268453   1.2612706  26.8752503   1.5775047   1.4589444
  32.7261735  16.6248286  26.2181122  32.1016075  17.2238863  26.3285000
  32.5898410  16.0634744  26.8718941  32.6137735  16.6303980  26.3309939
  28.3169734  35.8485134  19.9123607  29.0468346  35.6094738  20.3262506
  27.8492009  35.1127984  19.8799453  28.3556878  35.7045221  19.9687133
  14.3932425   7.0881384   4.5183594  15.0878417   6.9711607   5.0331313
  14.2115294   7.9366415   4.6087129  14.4690072   7.1961992   4.6077473
  22.4885869  20.6113632  25.1499923  22.1490145  19.9505157  25.6072765
  21.8189764  21.1631234  25.0587689  22.3395085  20.5952496  25.2040668
   6.7886197  13.5641630   5.4403836   6.9498765  12.9799445   6.0679371
   7.1947467  14.2836435   5.7206495   6.8724334  13.5841424   5.5744869
  29.6304965  32.0573754  10.5150807  29.6546888  32.9286302  10.5534124
  29.9602699  31.8089969  11.2836492  29.6827841  32.1493871  10.6342769
  25.5989135  24.8818254  15.6129062  25.6642873  25.7517791  15.6197333
  26.3449425  24.6229601  15.2420032  25.7187743  24.9720955  15.5591249
   7.0334078  25.9321720  13.6680293   6.4036204  25.5190630  13.2277453
   6.9868733  26.7516012  13.3722079   6.9335009  25.9921939  13.5592914
   4.1364852   7.2938688  20.3107392   4.2983025   7.0183427  21.1225527
   3.5566539   6.7157037  20.0096422   4.0747359   7.1677596  20.3861826
   4.6350923  30.9717941   5.2002781   4.4887474  30.1801968   5.5365746
   3.8978177  31.4062667   5.3699773   4.5045635  30.9190416   5.2750223
  32.2380902  27.6205270   1.1707940  32.0244648  26.8048256   1.3947071
  31.5483953  27.8946607   0.7121958  32.1046521  27.5405281   1.1361279
  18.3970046  11.8092554  17.1972418  19.2064893  12.1320980  17.1566856
  18.1581104  11.7487829  16.3603354  18.4812927  11.8480127  17.0676219
  13.7760032   6.7048258  27.5476432  13.2624710   6.0181260  27.7084732
  13.8740326   7.0756531  28.3312368  13.7146247   6.6581649  27.6871538
  20.4256700  22.0144191  21.0466753  20.1738428  21.3310208  21.5269719
  19.6895669  22.2733035  20.6564651  20.2797292  21.9517102  21.0599838
   0.4677130  17.9057908   1.5052189   0.0182260  18.6481619   1.5945877
   0.1345954  17.5501442   0.7815566   0.3521062  17.9629183   1.4115204
  25.4405713  16.9813275   7.4081570  25.1479459  16.4683843   8.0503404
  25.1770306  16.5732789   6.6834629  25.3584123  16.8452775   7.3959684
  16.0048497  19.3746281  23.0689604  16.2685871  20.0143695  22.5376303
  16.7255330  19.1685474  23.5153753  16.1502683  19.4386876  23.0564148
   9.8075282   3.0909026  24.7185664   9.7824084   3.8550717  25.1387497
   9.0314280   3.0491066  24.3222647   9.6891724   3.1976119  24.7220944
   4.6734702  28.2931495   6.4750876   4.6480023  28.4673834   7.3295655
   3.8320171  28.2304454   6.2533535   4.5454084  28.3096242   6.5685572
  21.8481851  13.4390991  19.8397708  22.7165985  13.3650224  19.8008883
  21.6528225  13.9293735  19.1450751  21.9476080  13.5005825  19.7314072
  28.4872891  16.7462730   7.7898771  27.6836158  17.0807004   7.7315027
  28.3644868  15.9883416   8.2041223  28.3504297  16.6837132   7.8424484
  14.3564355   6.0040729  17.6487746  14.2737185   5.7437723  18.4773507
  15.1600491   5.7433717  17.4311079  14.4629275   5.9271114  17.7390160
  20.4653955  30.3745668  17.1189385  20.5927372  29.5435732  16.8857520
  20.6789446  30.8237808  16.4021795  20.5157518  30.3181713  16.9786125
  12.7173650   7.7395201  20.9331339  13.4538733   8.2012773  21.0071092
  12.9985368   6.9282711  20.7783585  12.8676974   7.6878929  20.9211980
   7.0662095  14.9401808  13.0641472   6.5282895  15.6127393  13.2035923
   7.2235753  14.6337652  13.8656986   7.0099951  14.9942684  13.2031512
  20.5062841  20.5319762  10.6433850  20.5764745  20.6842017  11.4995616
  19.6816228  20.7521224  10.4628222  20.3948377  20.5869842  10.7431870
  12.1542156  31.7404907   1.5820238  11.5605783  32.0378988   2.1479599
  12.0351768  32.2413938   0.8777050  12.0489383  31.8584173   1.5615819
   2.5329816  14.3286197   5.3147167   2.2025453  14.8094051   4.6660277
   3.1336700  14.8509567   5.6717551   2.5729048  14.4768016   5.2716339
  20.3962374  17.4071424  21.1389947  20.3896046  17.2864502  20.2749753
  19.7320437  16.9160907  21.4198136  20.2971435  17.3167770  21.0528445
   2.8612601  31.0267840  27.4124142   2.5639092  30.4571022  26.8223425
   2.5343215  31.7897538  27.1438499   2.7690398  31.0553367  27.2855758
  17.5870978  25.1598978  24.1112488  18.1131970  24.9371624  23.4518938
  17.9958235  25.8366323  24.4801842  17.7251899  25.2269626  24.0683477
  19.6975791   2.3646913  11.1748059  19.3751609   2.8569794  10.5307276
  20.5131757   2.1956931  10.9152157  19.7704303   2.4124479  11.0413153
  14.4853818   8.1699699  24.9507737  14.2889190   7.3261940  24.8478913
  15.2902687   8.2349271  24.6205020  14.5752597   8.0549222  24.8867893
  32.7627397  15.3044856  29.0299974  32.1389604  15.8460820  29.3105517
  33.1285524  15.0137317  29.7667347  32.7246332  15.3415406  29.1802726
  31.1502363  35.2305049  13.2844670  31.1778213  36.0800758  13.0879814
  31.8755056  35.1046051  13.7527306  31.2614490  35.3374060  13.3246166
   8.5521740  15.9048700  18.6478961   9.2513317  16.4210343  18.7246597
   8.0889159  16.2803566  18.0110753   8.5870212  16.0365844  18.5651636
  15.8080316   1.7704289  15.4022343  15.0014198   1.5762751  15.1323826
  16.2715077   1.7934983  14.6634562  15.7573438   1.7451565  15.2532370
  17.5071551  32.6405113  23.0813296  17.8313281  32.4504249  22.2939808
  17.5417735  33.5116975  23.1125529  17.5601555  32.7411239  22.9696352
  18.1493545  16.9489426  11.5202332  18.9386762  17.1723015  11.2232125
  17.8217555  17.7008600  11.8176174  18.2175601  17.0930107  11.5202868
   8.4056455   5.8726656   9.6709408   7.7273732   5.3763002   9.4370427
   8.1287926   6.2694168  10.3969445   8.2645541   5.8579504   9.7436346
  20.7824159  18.8373287   1.9149787  21.1469031  18.1551320   1.5113742
  20.8438147  18.6321134   2.7607066  20.8453286  18.7062390   1.9802911
  17.1223307  33.1130903  11.5322690  17.7264392  33.6003702  11.9307058
  16.5141141  32.9972761  12.1469229  17.1217239  33.1679647  11.6819232
  14.8507310  14.9909604   6.8054849  14.2874862  14.8961711   7.4649620
  14.4491244  15.5522227   6.2717837  14.7082032  15.0598681   6.8240649
  21.1571312   9.1060400  18.8309555  20.9124756   8.9722908  18.0042784
  21.9273353   9.5086044  18.7543671  21.2347651   9.1457498  18.6975246
  18.8072908   7.6007335  19.6092636  19.5144129   8.1000679  19.7178061
  18.3678186   7.7023475  20.3560431  18.8468277   7.6895063  19.7356112
   8.0565678   7.0313859  21.8204815   8.1470191   7.1579576  22.6789362
   7.9404532   6.1694843  21.7513258   8.0527770   6.9227624  21.9370777
  12.6763439  27.6777000  27.4359417  12.1620393  27.1700312  26.9471645
  13.3535600  27.8477515  26.9128728  12.7004087  27.6278270  27.2864723
  11.3424241  27.3331506   6.2547517  11.8905198  26.7464853   6.5961564
  11.6505801  28.0956037   6.5460336  11.4689099  27.3591180   6.3482124
  32.2196604  27.1504307  26.7623758  32.7814148  27.4523163  27.3577213
  32.1368731  27.8147984  26.2030005  32.2904137  27.2931671  26.7676902
  12.8640389   5.7950180   2.4703939  13.6932135   5.9543054   2.6900227
  12.4194574   5.9841507   3.1968338  12.9208505   5.8464878   2.6101477
  25.7726044  31.1460910   4.9381873  25.0431550  31.2778873   5.3982663
  26.3658900  30.9483389   5.5465013  25.7524896  31.1363481   5.0960112
  21.5833306   8.0668037   9.4809253  21.8567562   8.7755125   9.9100048
  21.1281562   7.6265590  10.0810415  21.5564823   8.1064623   9.6329601
   9.9976384  35.1573007  25.8984208   9.1941344  34.9151914  25.6598735
  10.3139245  34.4506090  26.3005233   9.9256646  35.0171440  25.9225798
   5.9668005  20.6987436  22.6088629   5.6690825  19.8839230  22.7014385
   5.4071320  21.0587699  22.0446883   5.8401478  20.6315608  22.5391970
  28.8848162  13.6577976  27.8683598  28.0618674  13.7420940  28.1454689
  28.8894428  12.8801894  27.4728281  28.7639330  13.5553813  27.8508646
  27.0171487  14.2820852   4.5584743  27.7358519  14.5682113   4.9618786
  27.3288380  13.8023250   3.8998215  27.1693598  14.2534845   4.5207684
  22.3168147   1.5197652  10.6370623  22.3641635   1.0411828   9.9091513
  23.0013669   1.2491648  11.1053641  22.4249316   1.4090960  10.5987150
   3.3063305  15.2990568  28.1551201   2.8684557  16.0402369  28.2967407
   2.6761568  14.7115123  28.0179627   3.1485594  15.3217518  28.1557781
  24.1692924  29.7719605  15.8680289  23.5369134  29.2431111  15.5824464
  23.7483692  30.3342159  16.3855534  24.0136981  29.7768952  15.9022908
   1.7439391   3.7651341  26.3279756   2.0333649   4.4383209  25.8544861
   1.7927338   3.0906336  25.7767897   1.7939021   3.7649410  26.1766099
  32.6559591  13.6303217   3.9074816  32.0766997  14.2519100   4.1055407
  33.4211445  13.9837057   4.1327586  32.6834226  13.7743456   3.9700140
   1.8474886  27.0499706  10.9902351   1.9671987  27.1609449  10.1332085
   1.2933606  26.3775778  11.0345857   1.7833161  26.9670367  10.8701854
  10.0078118  25.3992255   8.7240846  10.7571828  25.7426913   8.4384043
  10.1144624  24.5422728   8.5999925  10.1342642  25.3233726   8.6635525
  26.5289580  35.9871756   7.1299035  26.6733395  35.1897681   7.4530656
  27.3186051  36.3580140   7.1383650  26.6669356  35.9241625   7.1788914
   2.7474998  13.2192457   1.7394778   2.6056980  12.4807417   1.2971622
   3.6085533  13.2122302   1.8797480   2.8537487  13.1091166   1.6948594
  24.9585676  25.2680845  24.9839623  24.5393133  25.7412298  25.5852110
  25.3743553  24.6616192  25.4534895  24.9580550  25.2483899  25.1421339
  21.1399722  21.5893102   1.2563808  21.0569620  20.7633448   1.5247614
  20.7508779  21.5913606   0.4755218  21.0702324  21.4676023   1.1806781
  12.3697208  33.0835176  26.1033297  12.8162836  32.8972554  26.8292952
  12.9061387  33.6116672  25.6623578  12.5149320  33.1340218  26.1454296
  16.1311805  34.3118700  17.2468884  16.8430602  34.7970978  17.1093495
  16.1215007  34.2025870  18.1123955  16.2349116  34.3674048  17.3544247
  19.9225033  33.9122143  16.9747383  19.5215524  33.7622903  17.7349360
  20.7532430  34.0477097  17.2042019  19.9859918  33.9100830  17.1209318
  21.4952135  15.7647627   7.8781331  20.6395364  15.7774704   8.0478233
  21.6301179  14.9621503   7.5638777  21.3887405  15.6480758   7.8567773
  26.1043143   8.5191314   8.2962877  26.7455053   8.3805959   8.8714606
  26.4750290   8.3366077   7.5279171  26.2537932   8.4717052   8.2677490
  13.6602294  22.7585952  20.1076031  13.9793574  23.4793537  20.4815078
  13.1680476  22.4031799  20.7341647  13.6346661  22.8125637  20.2553940
   8.7097298  32.6607483   5.2547295   8.9455544  33.2803075   5.8218915
   9.3092095  32.0375888   5.3706534   8.8331210  32.6602190   5.3556354
   9.7377795   4.5337597  29.2684054  10.5883336   4.4097525  29.1190052
   9.7260559   5.0443262  29.9757409   9.8616922   4.5908627  29.3508244
   6.5450037  34.5289740   1.3109834   6.5855754  33.7248984   1.6470725
   6.6425360  35.0470282   2.0061428   6.5654052  34.4867226   1.4633209
   5.8693969  24.7580290  21.1124737   6.3556945  24.7518611  21.8367798
   5.0794541  24.9941182  21.3977701   5.8245408  24.7919917  21.2616141
  23.3220030   7.7165325  21.3198137  23.7940718   8.1709106  20.7437658
  22.7889420   7.2412355  20.8187389  23.3129908   7.7134426  21.1607003
   4.2345324  10.7198763   7.3587663   3.5151017  11.1808574   7.1825392
   4.0788433   9.9463677   6.9864948   4.1052592  10.6737101   7.2777421
  32.5118065  28.6098647  22.6027703  32.4651837  28.7278962  21.7396164
  31.6939926  28.4038591  22.8261113  32.3841119  28.5968685  22.5082564
  16.7545235  32.7702656  25.9095049  17.2946906  32.6258697  25.2397966
  17.0005083  33.5528817  26.2063932  16.8706536  32.8645434  25.8544302
  13.0390179  26.9601488   0.3077657  12.7366948  27.5359964   0.8892638
  12.9803038  27.3854661  -0.4517048  12.9856861  27.1080422   0.2814753
  27.9296447  34.2726755  26.3936528  27.7362747  33.9984989  27.1989944
  27.1696378  34.5776320  26.0927706  27.7888114  34.2772245  26.4681717
  30.0466180  10.5064368   1.8377096  29.8058486  11.0458636   2.4797303
  30.2156878  11.0434020   1.1712081  30.0360250  10.6654418   1.8340928
  33.2502341  21.0555243  17.7482545  33.8049078  20.5850077  17.2664964
  33.5890126  21.8591547  17.7249062  33.3822155  21.1047316  17.6736403
   0.5121083  23.6733932  18.8153923   0.8276257  24.3017335  19.3318975
  -0.2305280  23.4384520  19.2083728   0.4490140  23.7315066  18.9497411
  20.1544619   9.3028388  16.2196279  19.4913006   8.7490878  16.0983300
  19.7682500  10.0849662  16.2359798  19.9994481   9.3365703  16.2041247
   0.3082430  31.1321664  29.9223474  -0.2151979  31.8279099  29.8667482
   0.1199543  30.6757998  29.2030300   0.2031051  31.1675286  29.8078762
   0.4062594  28.1758499  13.1665387  -0.4655015  28.1633139  13.1983628
   0.5989326  27.5606990  12.5786557   0.3059448  28.0831289  13.0843987
  25.6308854   3.9170473   4.5535868  24.8918546   4.3656461   4.6707749
  25.3567774   3.1446426   4.2545977  25.4812241   3.8692134   4.5267311
  10.7398522  23.8894272  28.8791714  10.3226900  23.1232119  28.8848935
  10.5594790  24.2270517  29.6631442  10.6515837  23.8261151  28.9958273
  11.2200904  31.6536250  16.6451390  12.0478833  31.5326180  16.8926317
  11.0714960  32.4932923  16.8295891  11.3204217  31.7597880  16.7089445
  17.6838803  21.0305328  10.0243848  17.5514364  21.5136511  10.7386630
  17.9173756  21.6159685   9.4211571  17.6988077  21.1883802  10.0407880
   3.1082522   4.9633155  18.7389261   3.1456005   5.2617917  17.9199917
   2.8631317   4.1315208  18.6431105   3.0775582   4.8845325  18.6038000
  -0.1503504  24.8027642  29.5200787   0.5804931  24.7157652  29.9885188
  -0.1211799  25.6306035  29.2462764  -0.0380791  24.9122019  29.5488296
  15.2180338   9.2923653  20.9012294  14.9693787   9.9801135  21.3769531
  15.8284354   9.6197534  20.3707886  15.2714717   9.4423217  20.8931470
  28.9512224   3.3447036  11.9336176  28.1440902   3.0643934  12.1099806
  28.8193328   4.0572298  11.4477682  28.8125096   3.4085506  11.8878996
  11.4735769  16.3150239   7.4644310  10.7768987  15.9760475   7.0633371
  11.7891715  15.6463861   7.9275329  11.4172862  16.1661792   7.4735911
  21.2317003  26.4483421  17.2973377  20.6724036  26.7701547  17.8845055
  21.8457616  26.0674636  17.7862150  21.2397898  26.4396207  17.4562914
  23.7517834   6.6495902  24.1229320  23.9446831   6.5193159  23.2821250
  23.7520790   5.8451063  24.4604921  23.7803221   6.5115054  24.0485930
   8.6430489  17.0203578  27.7157494   7.8307759  17.3172092  27.8307622
   9.1432749  17.6970184  27.9460656   8.5969531  17.1641660  27.7667615
   2.3286306  28.5844351   5.0428641   2.2549617  28.4525860   4.1836041
   1.8502199  29.3005557   5.1822704   2.2470772  28.6707438   4.9365267
  11.9486511   4.2847431  22.5353616  11.4839768   4.1874543  21.8034112
  11.4217591   3.9712232  23.1560295  11.8021762   4.2240584  22.5189226
  18.0900121   1.9908176  13.5429883  18.8145102   1.9301067  14.0252304
  18.3461715   2.4463115  12.8443873  18.2348753   2.0491348  13.5110271
  28.8327789   4.9317663  22.2685780  29.0808368   4.5169561  22.9949059
  27.9642797   4.9712150  22.3413338  28.7411261   4.8763149  22.3866238
   8.0441939  25.7493849   3.0294341   8.2607114  25.6173105   3.8641894
   7.3877894  26.3221933   3.0759305   7.9792153  25.8144910   3.1596133
   0.9116235  29.8530769  19.2146945   0.0425881  29.7790504  19.1937971
   1.1894769  29.0292716  19.1420293   0.8242938  29.7204471  19.2008734
  20.7364703  12.9204679  16.6619141  20.8456398  13.6366832  17.1479780
  20.6235684  13.2347846  15.8559401  20.7359184  13.0726981  16.6146548
  23.0078398  33.9185629  24.4993731  22.1781527  33.7871623  24.2637965
  22.9518162  34.5386935  25.1104685  22.8770053  33.9907585  24.5548484
  15.0417483  14.7052097  28.7791944  15.3191924  15.0354242  28.0208265
  14.2343712  15.0258994  28.8594401  14.9634659  14.8013616  28.6790218
  29.8112561  31.7474548  17.5683103  30.3612258  31.0869236  17.4187408
  29.0247561  31.3929675  17.4383340  29.7763158  31.5975157  17.5270162
   2.9525553  21.8736286  29.5155859   2.7139484  21.1479349  29.9369836
   2.2424328  22.0866961  29.0557313   2.8124081  21.7979033  29.5099044
  22.9929495  18.8278975  20.8202481  22.2448063  18.4787001  21.1021733
  22.7450776  19.5859494  20.4666185  22.8458166  18.8882937  20.8096552
  28.6874057  12.9384916   2.7082583  28.4514529  12.7549474   1.8886420
  29.3219582  13.5293739   2.6116130  28.7462870  12.9986637   2.5729033
  23.2659470  31.4308500   5.8340853  22.9870307  32.0184398   5.2526348
  22.8081977  30.7146001   5.6376355  23.1571233  31.4118433   5.7191723
  14.6629464   2.2295659   3.5117567  14.2233264   2.5816791   4.1780072
  15.1191651   1.5859764   3.8843143  14.6653973   2.1865099   3.6652100
  31.6825652   9.4166881  15.6593643  31.9649577   8.6610401  15.9916149
  30.8441019   9.2597246  15.4763828  31.6004229   9.2818767  15.6814132
  14.4357551  19.3074000  10.8330281  15.1248551  19.0947676  10.3420431
  13.7888516  19.3905306  10.2535946  14.4419885  19.2882705  10.6749041
  30.5233765  32.3485732   3.5075538  30.4910133  32.1117568   4.3466060
  30.5006496  33.2201314   3.5393780  30.5152384  32.4423385   3.6361997
   1.7129818   5.8265150  22.7130389   2.1979171   5.3033102  23.2152677
   1.1499402   6.1856055  23.2744455   1.7014438   5.8022720  22.8701615
  17.0902622  14.8035336   3.7064946  16.5861201  14.1420066   3.4431273
  16.5247130  15.4565728   3.8282847  16.9322467  14.8022807   3.6855808
   1.0757238  13.2680242  14.2660076   0.7532947  12.4601333  14.1990072
   1.9223903  13.1379192  14.4314415   1.1531644  13.1294649  14.2805512
  29.4398928  19.3776355  25.0337010  29.2038274  19.6400008  25.8315580
  28.6795330  19.2167602  24.6373271  29.2927003  19.3926273  25.0930082
   0.4700219   7.2507494  13.0680185   0.4539048   6.4436643  13.3989136
   1.2575137   7.5498407  13.2950478   0.5839717   7.1757095  13.1504350
   5.6296200  28.9293885  16.6589863   5.2918279  28.2394719  16.2454016
   6.4307666  28.6640048  16.8800623   5.6980669  28.7882710  16.6305477
  19.0551306  24.9550629  16.4909840  19.8040415  25.4021645  16.4716649
  18.4527136  25.5554605  16.2966692  19.0767695  25.1097989  16.4594257
  18.7384211  21.7379778  26.5844999  19.0385424  21.7989462  27.4014125
  19.3464314  22.1475141  26.1114870  18.8725745  21.8074768  26.6352997
   4.5630290   1.0884063  24.3788385   4.7498681   1.0334079  25.2292538
   3.8110186   0.6522553  24.3054104   4.4795443   1.0158532  24.4936156
  30.0720596  25.6355405  24.6955998  30.6161165  25.7868624  24.0305836
  29.3855095  26.1439729  24.5187313  30.0510097  25.7330012  24.5712359
  10.3602111  21.3553586   6.4728212   9.8934495  21.1401667   5.7678616
  11.1091553  20.9215274   6.3632327  10.4018962  21.2594857   6.3524956
  17.2107828  31.8467825   3.6778751  16.9510341  31.3573425   4.3517587
  16.5104127  31.8684929   3.1581163  17.0689535  31.7776888   3.7006426
  14.1753209   1.5802909  22.5335162  13.9083576   1.4341035  21.7158984
  13.6092257   1.1268105  23.0183171  14.0522611   1.4917077  22.4843519
   2.5840104  26.7910361  25.0111698   3.2878459  26.7935801  25.5266752
   2.3901642  27.6372337  24.9244969   2.6593459  26.9164133  25.0745170
  10.0652660  30.4956694   8.8259809   9.3112791  30.0642229   8.7453668
  10.3376067  30.5884195   8.0023520   9.9941171  30.4456372   8.6924045
   1.6092003   4.8506849  10.6674559   1.9642509   5.1062696  11.4222748
   1.6353954   5.5700081  10.1744778   1.6655195   4.9946993  10.7061321
  18.8795149  31.9840288  29.0652323  18.0733681  32.1459174  29.3568802
  19.3895698  32.4336410  29.6118879  18.8357759  32.0743608  29.1890693
  24.7648859  12.0405364   3.6231381  24.4354081  12.1784043   4.4191122
  25.5943775  11.8202245   3.7798160  24.8387504  12.0283580   3.7638643
  31.6024709   5.4243834  29.9376358  30.9714222   4.8222668  29.9182286
  32.3063350   4.9757368  30.1914753  31.6132259   5.2691634  29.9722638
  31.5157998   7.1632927  18.9774585  31.6071834   6.2993019  18.8980663
  31.4461022   7.2839182  19.8386967  31.5190033   7.0534818  19.0929532
  23.6447001   5.1739347  10.4803782  24.2485118   5.4642868  11.0391693
  23.5776043   5.8193702   9.8972409  23.7239838   5.3121698  10.4767816
  29.9865901  13.9154823   6.3629234  30.0262057  13.2210810   5.8362567
  30.1531255  13.5838516   7.1524978  30.0170457  13.7639148   6.4017600
  17.7183793   9.7607327   4.0090513  17.0249723   9.4739234   4.4540960
  18.1749319   9.0344614   3.8502294  17.6833890   9.6110797   4.0513325
  14.3788791  13.2646513  13.1437223  14.4460786  12.3994970  13.2339053
  15.1229835  13.5649955  13.4861272  14.4987250  13.1812167  13.2076245
   8.0296505  13.6707530   8.7738514   7.4914587  13.0644737   8.4514946
   8.7372149  13.2153259   9.0042478   8.0546702  13.5139118   8.7602669
  21.6712022   3.2787711  16.8608172  22.5407577   3.3254630  16.8076069
  21.4094377   4.0848238  16.6536982  21.7609859   3.4047396  16.8223602
  21.5689362  13.0545223   6.7873294  20.9392870  12.7092123   6.2919075
  22.3039366  12.7883744   6.3999302  21.5844990  12.9641974   6.6569192
   5.8818077   9.7499317   4.2820794   5.6251977  10.0372124   3.4992892
   5.1675819   9.8345649   4.7758968   5.7383941   9.8048711   4.2393930
  20.7981849  28.2394838   1.5980710  20.5469894  28.4803486   2.3980868
  20.3492594  28.7723088   1.0729966  20.6947613  28.3537722   1.6386855
   6.1498088  28.3599080  12.3855138   5.4505748  27.9637731  12.7250552
   5.9563988  29.2081983  12.4498248   6.0179466  28.4267009  12.4451709
   3.7581240  17.5642180  16.0423725   3.2168805  16.8874681  16.1433952
   4.3787014  17.4213612  16.6387062   3.7698423  17.4431443  16.1453860
   5.3923142  13.5901570  27.1936393   4.8147666  14.2043054  27.4181390
   5.3393191  13.0111504  27.8440857   5.2991700  13.5953486  27.3228860
  23.1155478   2.5773947  23.1869173  23.1881367   2.9975193  22.4257565
  23.8795172   2.1636932  23.2665491  23.2391249   2.5783436  23.0862403
  30.8957038   7.2433359  21.6736586  30.4176647   6.5785415  21.9747669
  31.4477914   7.4118407  22.3278315  30.9066425   7.1700246  21.8147738
  16.0260760   0.3710287  12.6432497  16.7100989   0.9125512  12.6401598
  16.3165032  -0.3237898  13.0837233  16.1700236   0.3483837  12.7078612
   2.5351098  10.9333644  12.3768997   2.5803316  10.5857501  11.5779901
   1.6868162  10.8836112  12.5745404   2.4164796  10.8746658  12.2880805
  24.3927813  16.4353435  27.3527462  23.9301920  16.1349552  26.6767866
  24.8198843  15.7303207  27.6385195  24.3875384  16.2868278  27.2951061
   8.8750416  20.1320379   4.4280107   9.1785288  20.0675695   3.6126096
   8.6954558  19.3065660   4.6459157   8.8933444  20.0005739   4.3397481
  18.1603397  31.6652159  20.5851650  18.5304642  30.9388573  20.8958912
  17.9191983  31.4428864  19.7767341  18.1793929  31.5250749  20.5116439
   9.8756701  19.2086761  28.8499985  10.6911254  19.1923444  28.5403143
   9.6746594  20.0576322  28.8538061   9.9664360  19.3316715  28.8048134
  22.3249137  35.6625000  14.9642461  22.1601569  35.2284133  14.2256241
  23.0819499  36.0644215  14.8014634  22.4124037  35.6577486  14.8310905
  18.1540082   2.7734981  28.9494831  18.1054662   2.3501001  29.7107441
  18.1651662   3.6141191  29.1826470  18.1484865   2.8351341  29.0963824
  31.9030539   1.5098183   4.8849568  32.2492821   1.9358843   4.2069200
  32.3848367   0.7844989   4.9391353  32.0253681   1.4656108   4.7928002
  32.0757484  11.1078770   4.7889488  32.3558903  11.0371525   5.6121509
  32.4091482  11.8691380   4.5234959  32.1663833  11.2098820   4.8713415
  15.4849292   3.9313683   8.3227744  15.0664426   3.8044301   9.0776886
  14.9013937   4.3575329   7.8338875  15.3369094   3.9755702   8.3620705
   0.9995577   3.2200149  16.7888594   0.2245824   3.3337352  17.1730733
   1.2793036   2.4596159  17.1123946   0.9264021   3.1244871  16.8934083
  23.3961105  23.1806083  14.4752686  23.9525795  23.8303215  14.6465926
  23.8675094  22.4619288  14.6250146  23.5479474  23.1704206  14.5226972
  17.6297986   6.7528503   8.3975583  18.0931842   7.4546497   8.1654060
  17.2554003   6.9932954   9.1479921  17.6429450   6.8920391   8.4741193
  32.3894627   2.9172373  23.5373149  32.9279548   2.4210986  24.0116702
  31.8584808   2.3384991  23.1574998  32.3905721   2.7584559  23.5512791
  32.2795202   2.3478348  28.7338986  31.8414165   2.0615728  28.0358567
  31.6630889   2.7255113  29.2222752  32.1237446   2.3613388  28.7029232
  28.7862539  33.9853498  14.0078466  29.5645690  34.3086312  13.7823420
  28.8575315  33.1346537  13.8279157  28.9117575  33.9074398  13.9479547
   5.5666649  22.4820495  19.5425153   5.6649362  23.2203984  19.9967468
   4.7678529  22.5568199  19.1998088   5.4631793  22.6021647  19.5589900
  23.6981375  28.0497670  20.2818234  24.0157843  28.7560344  19.8800404
  24.1634721  28.0061769  21.0185082  23.8137997  28.1476569  20.3312952
  31.5023017  23.4227891  15.6475687  31.1073518  22.6697082  15.8425617
  32.3502922  23.2395275  15.7395744  31.5692258  23.2844717  15.6899643
  22.6738859  14.7842424   3.5463936  22.8716875  15.4862087   3.0675823
  21.9263244  15.0066154   3.9373429  22.5926746  14.9207895   3.5334141
  18.6608995  16.0007632  22.9044699  18.5447312  15.9868979  23.7690227
  19.2479778  15.3703892  22.7662443  18.7304629  15.9055960  23.0117636
  26.8784989  23.9233794  26.6204119  26.5872968  24.1593709  27.4082255
  26.5294946  23.1327500  26.5010786  26.7839272  23.8414492  26.7191601
  19.0116965  26.9307780  11.3008148  18.8904559  26.1246872  10.9899170
  18.2652318  27.3392940  11.1083443  18.8835179  26.8720484  11.2264569
  28.6670566  17.6306367  28.2494569  28.0749559  18.1884181  27.9341197
  28.9798951  17.2383785  27.5357294  28.6258030  17.6550889  28.0974436
  25.2870989  18.6139791  10.6757629  26.1331344  18.6383693  10.8873546
  24.9377036  19.2552345  11.1530995  25.3604627  18.7123077  10.7775319
  27.0773350   9.9506080  22.4937533  27.3216950  10.6546676  22.9473250
  27.0513474   9.3184531  23.0944567  27.1095931   9.9612302  22.6494913
  21.9366778   2.3851555  -0.1658723  22.4458731   2.4003475   0.5423845
  21.1460865   2.2009699   0.1537878  21.8951095   2.3601930  -0.0140278
  18.1004549  24.6949785   4.9288630  17.4762691  24.2168443   5.3069079
  17.8785289  24.6918790   4.0851343  17.9754663  24.6238916   4.8600721
   0.1976349   7.0588002  25.2665167   0.6183840   7.5499091  25.8521097
  -0.2407502   6.4854894  25.7566964   0.1950297   7.0466552  25.4254304
  20.7924677  10.9657924  20.7830524  20.7686497  10.6003492  19.9912047
  21.2271012  11.7108410  20.6521392  20.8531535  11.0218685  20.6467414
  32.5906301   5.7985067   5.9983966  31.8123126   5.5933988   6.3349864
  33.0625606   5.0743324   6.1166808  32.5453711   5.6612325   6.0655924
   3.4545075  27.2563090  13.2265919   2.8506457  27.7153363  13.6576216
   3.0971777  27.1349778  12.4399965   3.3125197  27.3061957  13.1740682
  23.6724567  28.7425439  12.4805760  23.9732671  28.5627287  11.6816270
  22.9376674  28.2751434  12.5331151  23.6083508  28.6469381  12.3703158
   5.8645660   8.0802553   9.0759645   6.5726763   7.9957931   8.5733877
   6.1756551   8.4319799   9.8112569   6.0151231   8.1197326   9.1103397
  20.3605485  20.5267954  13.3235230  20.6507635  21.2560582  13.7044300
  19.8714483  20.1530933  13.9417996  20.3311682  20.5793190  13.4711232
  26.9408185   7.4945670   5.7753880  26.9296784   6.6327608   5.6400902
  27.2444601   7.8163487   5.0234563  26.9840271   7.4147940   5.6443245
  27.5862349  15.6207466   0.0548966  27.2502369  16.0773385   0.7180459
  27.8319330  16.2352455  -0.5135768  27.5728960  15.7789683   0.0688822
  19.8798466  32.6314249  26.5613937  19.6547628  32.2047343  27.2883129
  19.6249510  33.4510793  26.7174006  19.8089445  32.6894726  26.6918182
  28.1411905   8.1254172  10.5062377  27.9505677   8.5942471  11.2168717
  28.9889605   8.2852751  10.3763485  28.2382650   8.2182872  10.5920255
  21.4515090  12.0453274   2.5792176  21.7394352  12.8534627   2.7378185
  20.5905676  12.1493411   2.4838192  21.3668633  12.1800709   2.5885541
  20.3033961   8.3354003   7.1960723  20.6808830   8.3796651   7.9813647
  19.9826229   9.1379578   7.0771354  20.3117741   8.4604914   7.2945064
  24.0753686  27.3372245   6.3138502  24.6773946  26.7185450   6.4401095
  23.6424195  27.3597050   7.0709460  24.1003453  27.2491550   6.4443391
  23.4398079  17.8495278   3.6130394  23.5954785  17.8365340   2.7547039
  24.1192985  17.4193873   3.9512839  23.5631776  17.7840676   3.5362114
   4.1989362   1.6952094  13.3049665   3.3701407   1.9661036  13.3341442
   4.6576988   2.4220172  13.4547315   4.1442739   1.8425906  13.3313976
   6.9556535  28.2175603  29.2179554   7.6443375  27.6840224  29.1711298
   6.6042436  28.1693425  28.4208821   7.0054758  28.1316247  29.0932941
   6.6029822  35.2775860  28.5470080   6.9129884  34.5209908  28.2427049
   6.3837826  35.0928926  29.3710113   6.6163956  35.1385379  28.6237788
  33.3129025  31.0518454  23.6244185  32.5411487  31.1085252  24.0273077
  33.2023907  30.3950209  23.0609400  33.1825733  30.9631918  23.6006958
   6.9638836  32.0472614  23.6848097   7.6546109  31.5204213  23.6043470
   6.5330601  31.7177446  24.3681466   7.0022768  31.9207598  23.7738668
   0.6647145   2.7901203  21.5695548   0.6409752   3.5442622  21.1315513
   0.1319491   2.9290945  22.2463012   0.5825054   2.9220517  21.6048217
   2.2892462  29.9263091  12.1659994   2.6091992  29.2166562  11.7720926
   1.6088330  29.6205814  12.6184487   2.2359978  29.7763164  12.1746480
   4.1883957  18.2414174  20.4390370   3.3847176  17.9081750  20.3742998
   4.4037830  18.0971766  21.2720697   4.1014945  18.1708825  20.5525302
   0.6468833   3.3716982   6.1123431   1.3727749   3.0981248   6.5115619
   0.4405392   2.7083032   5.5846435   0.7236303   3.2332890   6.0933638
  15.1673782  27.6595306   6.0629511  15.4066563  27.0445085   6.6335922
  14.4267142  27.9746270   6.3995081  15.0933135  27.6152253   6.1969632
   4.5773676  24.7556233   6.2007315   4.9271831  23.9596534   6.2728364
   4.7536573  24.9833345   5.3771980   4.6550840  24.6716785   6.0897310
  29.1558216  26.5097989  16.4745641  29.0616582  26.1081971  15.7058060
  28.8846252  27.3236002  16.3154435  29.1018502  26.5706892  16.3374972
  21.5935599  28.7809968  28.1480551  22.2126185  29.2344761  28.5630965
  20.9235322  28.7897086  28.7067366  21.5860306  28.8492727  28.2918954
  32.7943422   5.6778557   3.1681314  33.6543167   5.5324275   3.1472939
  32.6249140   5.7848842   4.0172359  32.8963501   5.6721837   3.2904837
  26.1995697  28.3551032  13.7354481  26.1845088  28.1136967  14.5736814
  25.3782797  28.6043818  13.5789824  26.0760236  28.3562655  13.8361597
   5.2092683  19.8738797  11.5877950   5.2817363  20.6676609  11.2331116
   4.3695974  19.6707017  11.4660931   5.0959367  19.9611242  11.5174234
   9.9863487   3.7795165   2.4722450  10.4906678   3.2970020   2.9956763
  10.1959050   3.5016042   1.6722505  10.0918031   3.6671859   2.4313920
   0.4239786   8.9941490  19.0985714   0.7825864   9.2327547  18.3398805
   0.1180900   8.1930465  18.9379249   0.4317678   8.9110565  18.9627634
  18.5634397  11.9368522   2.1453149  18.4517644  11.3481443   2.7794201
  17.8886674  12.4801319   2.2486360  18.4472631  11.9301431   2.2542484
  11.6679894  -0.2180846   5.1253636  12.3072659   0.3755300   5.1345045
  11.1973845  -0.0019462   4.4232566  11.6929042  -0.0984676   5.0229985
  13.2551419  31.2449479   4.7734317  13.3678805  32.0645285   4.4964549
  14.0651166  30.9212875   4.7915271  13.3914458  31.3182068   4.7351897
  28.1572461   7.5627058  28.2150782  28.2832217   8.3045070  28.6566638
  27.9406118   6.9888990  28.8355250  28.1438541   7.5875204  28.3719624
  26.4570379   5.8399230   2.2540672  26.0681605   6.6204315   2.2272546
  25.9846878   5.3953332   2.8374750  26.3298178   5.8895451   2.3362882
  18.4858490  11.3682413  14.4286752  17.7109838  10.9724963  14.3645811
  18.4647537  11.9648063  13.7924314  18.3682693  11.3979065  14.3252206
  10.0463473   8.7996030   4.6027923   9.7055613   9.2594165   5.2612567
  10.1146876   9.3837857   3.9584318  10.0061022   8.9538229   4.6048754
  24.1899776  33.4534256   9.1336090  24.5435047  33.8012200   9.8513825
  23.9998221  32.6365362   9.3737585  24.2141104  33.3841307   9.2751152
  11.2479436  23.7820499   5.5706089  12.0664250  23.7360160   5.8691256
  10.8531844  23.1020324   5.9486048  11.3105380  23.6747997   5.6705420
   5.3336299   3.1721742   0.7305724   4.6004880   2.9750235   0.3007180
   5.9654415   2.9453738   0.1733334   5.3186620   3.1095464   0.5847580
  22.2958028  35.6260469  28.7892365  22.4389016  36.3212444  29.2965460
  22.5647532  34.9559407  29.2788935  22.3566710  35.6297534  28.9365101
  24.7793121  21.7433333  11.0145450  24.5085520  21.6496634  11.8385923
  24.0847702  21.5072060  10.5423212  24.6367169  21.6946149  11.0665166
  11.2078321   1.9424708  26.8811791  12.0205128   2.1500594  26.6411861
  10.7224834   2.1946580  26.2014895  11.2561858   2.0103891  26.7453229
  11.0960663  25.2026987  26.3697226  11.5286458  24.5205784  26.0399897
  10.9539784  24.9738336  27.1995241  11.1389769  25.0681281  26.4435942
  18.5445833  16.4766455   8.6406865  17.8868556  16.9080031   9.0181317
  18.1769133  16.1183929   7.9352726  18.3931112  16.4874446   8.5922398
   8.4658301   0.2615853   6.4531929   9.2857069   0.5490161   6.3736613
   7.9909325   0.8895896   6.0773976   8.5167903   0.3968139   6.3859327
  20.2875125   4.6524255  14.3110156  20.5151402   5.1096409  15.0183213
  21.0312068   4.5896881  13.8592160  20.4309975   4.7106998  14.3487597
  20.2329684  32.9424024   1.3922674  20.4471935  33.7271929   1.7074663
  20.2681542  32.4234462   2.0926864  20.2698112  32.9816699   1.5422947
   6.5434361  24.4359255  10.4766178   6.0039455  24.1143751  11.0821712
   6.2023771  25.2174759  10.2922344   6.4133608  24.5038772  10.5388331
  32.3588373   9.5235300  27.7467765  31.6589667   9.2346579  27.3133298
  32.1886112   9.3115717  28.5757737  32.2303082   9.4495475  27.8052076
  32.5645193  35.5523139   9.0772183  33.0887813  35.7630221   9.7419674
  32.3866662  36.3208842   8.7046511  32.6156911  35.6969735   9.1203816
  31.4321756  30.3313614  20.4186106  30.9734154  29.7657735  19.9382055
  30.9198427  31.0368265  20.4498291  31.2887239  30.3520245  20.3522563
   6.5604866  31.8693318  15.1675713   7.0262474  31.2295642  15.5348659
   6.3484895  32.3815050  15.8412755   6.5979725  31.8504824  15.3213489
   4.9414781  16.6234791  25.4742479   4.1445789  16.3012516  25.6234503
   5.2255797  16.8442702  26.2690306   4.8657271  16.6084945  25.6136942
   1.2498223   1.3291509  29.4956170   0.4136478   1.5207250  29.3367086
   1.2384021   1.0225994  30.3123389   1.1246168   1.3121660  29.5927892
  30.5927400  34.7959389  10.6541777  30.8727709  34.7737207  11.4801478
  31.3273758  34.8769750  10.1906228  30.7426272  34.8046269  10.7077134
  29.3535066   2.5210874   2.9272488  29.1391752   3.3371298   3.1492367
  30.2234045   2.5469177   2.8660104  29.4503475   2.6454489   2.9509950
   0.2046477  24.4538481   8.2579000   0.4752504  23.9356584   7.6102931
   0.2188765  25.2505667   7.9026873   0.2467214  24.4949920   8.1097634
  27.0147109  13.9481246  14.3418932  26.4440727  13.5940027  13.7850201
  27.7822471  13.8506329  13.9387488  27.0437980  13.8814116  14.2000782
  20.7220828   1.4268367  23.8908862  21.5242516   1.6305130  23.6148798
  20.4428326   2.1614163  24.2697649  20.7993256   1.5654366  23.9060830
  23.6654074   4.2439382  25.2827971  23.3114386   3.6877601  24.7113829
  23.3995474   3.9402597  26.0562562  23.5738463   4.1169183  25.3126433
   2.7242004  23.6228037   3.9093174   3.4753978  23.9673591   3.6298050
   2.3362958  24.2853093   4.3237509   2.7778661  23.7715673   3.9292492
  21.0687757   8.8697016  22.7663814  20.8158220   9.5385456  22.2665792
  21.7585445   8.5456538  22.3417031  21.1333025   8.9206350  22.6298164
  27.5145293  27.7685547  11.5212398  27.1052808  27.8874993  12.2824936
  28.3542604  27.7012825  11.7480998  27.5781203  27.7761865  11.6672044
  12.7768838   7.5352066  13.9341194  12.9412686   7.7893608  14.7523625
  12.0142543   7.1164434  13.9986880  12.6885115   7.5108926  14.0645296
  29.6456957  29.2365575  15.2458129  30.2421880  29.6906519  15.6920562
  29.0340114  29.8298287  15.0587020  29.6434522  29.3912745  15.2840934
   9.1480004  31.1651778   0.6345915   8.3584773  31.2615585   0.2761188
   9.6679579  31.0192323  -0.0505984   9.1081797  31.1578560   0.4804210
  31.0969281  22.1623731  12.9745333  30.9318137  22.5239944  13.7511330
  30.7223463  21.3764310  13.0304222  31.0172033  22.0996928  13.0975085
   5.0784934  34.4873524  10.7895768   5.6077016  34.2171454  10.1507759
   4.4835294  33.8517380  10.8457005   5.0687803  34.3535423  10.7035029
   2.7126371  29.4597547  15.4034536   1.9422566  29.2372625  15.7471829
   3.1401407  29.8192423  16.0736399   2.6619851  29.4799917  15.5532294
  13.1887233   1.1324508  19.7492058  13.2844912   0.5596239  19.0981800
  12.8727996   1.8425376  19.3528349  13.1562030   1.1527259  19.5944864
  20.9698760  18.5885079   7.7344022  21.3816725  17.9455871   7.3122440
  20.1296889  18.3576960   7.6902662  20.9065901  18.4594388   7.6655183
  13.3263469   8.6267853  16.8161518  12.6339054   8.9379257  17.2461016
  13.5799289   7.9468179  17.3003847  13.2615173   8.5723019  16.9511921
  20.6110764  29.9973392  25.8109760  20.7938552  29.4851518  26.4931750
  20.5810070  30.7974672  26.1574244  20.6336355  30.0398731  25.9629273
  24.3108977   8.3839195  12.8575110  23.7768150   8.9907615  12.5294316
  25.0278539   8.8340490  13.0684531  24.3379117   8.5400550  12.8402078
  19.8757816   6.3577421  22.9193830  20.1235474   6.3906557  23.7552476
  19.9501527   7.1844275  22.6506829  19.9233688   6.4847238  23.0031657
  19.5620394  -0.2286673   7.3967757  20.1179218   0.4372003   7.3032059
  18.7790954   0.1562205   7.3970141  19.5284986  -0.0734491   7.3829855
  26.7426348  34.3764455   3.6039266  26.8917466  35.2127277   3.8027665
  27.1238411  33.9394922   4.2557651  26.8209732  34.4354346   3.7295893
  23.1947840  19.8456902  12.5006611  23.5547877  19.8345930  13.2952769
  22.3522688  19.6797378  12.6548273  23.1235076  19.8195369  12.6408131
   2.0260488  19.2196965   4.8649175   2.3521220  19.4626415   4.0930421
   2.4613296  19.7146904   5.4364497   2.1385156  19.3287063   4.8353226
  28.8043118  26.1103756   3.7318530  28.2191086  25.4731996   3.8444676
  28.3189321  26.8352498   3.7217583  28.6461639  26.1233301   3.7469973
  18.8823962  27.7680142  24.4406557  18.2612789  28.3053822  24.1463971
  19.5426786  28.3042998  24.6344709  18.8881826  27.9266150  24.4258189
  22.7365708  21.2274082   9.1736569  22.1361852  20.8445949   9.6777739
  23.0907273  20.5616720   8.7348999  22.7001977  21.0725160   9.1833128
  18.4758532  35.3112930   3.4272378  18.3969808  34.4443169   3.4844296
  19.3121731  35.4549975   3.6298650  18.5877442  35.2044509   3.4656184
  12.4165762  14.5798843  18.5037177  12.9860676  14.6447389  19.1614502
  12.8877390  14.2300050  17.8581732  12.5703038  14.5377796  18.5055177
   3.4055617  17.6219606  11.4696877   2.6170373  17.9738772  11.5942781
   3.5322067  17.7014923  10.6101673   3.3077884  17.6856947  11.3611238
   0.1905143  35.1502305   4.9800246   0.8861267  35.6151904   4.7328918
   0.4351269  34.8048752   5.7429354   0.3294050  35.1678986   5.0562136
  32.7754554   8.6592233   3.6310107  32.5585505   9.4908535   3.7809498
  33.5704485   8.5878795   3.9831955  32.8608509   8.7715334   3.7051851
  32.1760570   3.0809614   2.6507003  32.1802192   3.9360735   2.8236301
  32.7323057   3.0039966   1.9830138  32.2588412   3.1959099   2.5776155
   2.7409876   8.9503295  14.5030785   3.5469139   8.6291368  14.4111073
   2.6630915   9.5038564  13.8332438   2.8485311   8.9846499  14.3905437
  24.0056825   1.3859314   6.7398412  24.7419143   0.9723458   6.9590480
  24.0390372   2.1239647   7.2038824  24.1193652   1.4338590   6.8407709
  17.3266221   3.5011089  19.5549338  17.7621055   3.6549884  20.2950787
  17.2609318   2.6314393  19.5325988  17.3812474   3.3953720  19.6609693
  20.7290875  33.4196537   5.8928006  20.3807627  34.1150253   6.2881153
  20.8798968  32.8648107   6.5489595  20.6999099  33.4404104   6.0481231
  25.9956813  13.7866599  24.7953486  25.9955931  13.1286843  25.3682423
  26.6479373  13.5854752  24.2520022  26.0920215  13.6597426  24.7997141
  26.5985275   4.1775594   8.6190217  27.0648099   4.7345195   9.1022556
  25.8449645   4.1101775   9.0534656  26.5560902   4.2498813   8.7545817
  29.5696662  23.6303585  26.9633756  28.7856723  23.9116876  26.7038665
  30.0884900  23.8161724  26.2870370  29.5304952  23.6993663  26.8251310
   5.7941424   3.9919496  19.1567009   5.0350677   4.3962276  19.0100591
   5.6784450   3.2033551  18.8019161   5.6649195   3.9351782  19.0826302
  26.2770451  19.9408181  17.1610199  26.2140120  19.0706653  17.1597705
  25.6580127  20.1905198  17.7227912  26.1762900  19.8491640  17.2438226
  29.7765875  16.0126603  12.5355637  30.5503249  15.6417060  12.3778832
  29.7065878  15.9797144  13.4045589  29.8805451  15.9529960  12.6406395
  14.1426051   5.2334943  24.3684840  13.4686267   5.3550210  23.8280010
  14.7423005   4.8484864  23.8652182  14.1316319   5.1945748  24.2142987
  30.6077320  20.3701544  20.0859046  30.1591129  19.9091184  19.4965613
  31.3976670  19.9999130  20.0778913  30.6581513  20.2473569  19.9976635
  11.0436261   9.5588601  23.4951288  10.9206069   9.5923203  22.6320631
  11.7962802   9.9843735  23.6117012  11.1366356   9.6266598  23.3848555
   9.5520722  15.3093421  25.4512333   8.9338576  15.8106732  25.8084716
   9.2864739  14.4977021  25.6296693   9.4215142  15.2635026  25.5303632
  26.5097529  25.4525823  21.3340054  25.6729782  25.2494616  21.4743267
  26.9434781  24.7638018  21.6480146  26.4502139  25.3208299  21.4011202
  16.2814462  32.4275796  29.6442802  16.1876404  31.8461336  29.0006493
  15.9414172  32.0222978  30.3380137  16.2173593  32.2818197  29.6516814
  11.1694872  33.4906978  20.8677411  10.8291483  34.1807824  21.2789488
  11.1479557  33.7218649  20.0267673  11.1160314  33.6267857  20.8042550
  28.6383080  23.9099884  19.4235497  28.4420562  23.2471895  18.8912707
  28.2200742  23.7102509  20.1626884  28.5475373  23.7825751  19.4541078
  21.5302121  33.8453984  21.3948815  21.2824618  33.8876721  22.2303282
  22.1974885  33.2834960  21.4069836  21.5921818  33.7686385  21.5200823
  26.5138745  24.6603155  29.2999754  25.8347750  24.4587684  29.8092328
  27.1023011  24.0447402  29.4896041  26.5004802  24.5396090  29.4032155
  23.0443478  33.5449839   0.3341641  23.4024668  33.6630940   1.1208929
  22.2988033  33.1269002   0.5088295  22.9871178  33.5006714   0.4761853
  27.2216453  33.4801143  28.9490638  26.7328110  32.9691104  29.4599972
  27.9348459  33.6281707  29.4292341  27.2547903  33.4264993  29.0954719
  21.3833857   6.0957343  16.3426399  21.6750956   6.8990905  16.1675334
  20.6993294   6.2353904  16.8658066  21.3254285   6.2350376  16.3940561
  29.3531214  18.4389114  15.5109770  29.1990458  17.5894237  15.3853972
  29.5491444  18.7319982  14.7129709  29.3593203  18.3567190  15.3745444
   5.3120929  26.6252232   0.5528791   5.7044327  25.8487129   0.4877836
   5.9485352  27.1927238   0.3684241   5.4640651  26.5943480   0.5160148
   9.9338996  19.3993855   1.6571328   9.7730433  19.2888379   0.8068129
  10.6508576  19.8963833   1.6673560  10.0160491  19.4564724   1.5330331
  17.4642373  21.5285890   3.2995765  17.7762163  22.3427789   3.2695406
  18.1767751  21.0402696   3.4219377  17.6155794  21.5767257   3.3132165
  24.4105024  10.7982986   8.8727123  23.8688559  10.5989568   8.2184775
  25.0763280  10.2452200   8.7635309  24.4288463  10.6871526   8.7599404
   8.8384425   0.1519980  17.7286172   8.4874665   0.3469842  18.5031724
   8.1789386  -0.2151881  17.2911596   8.6891734   0.1265606  17.7784133
   8.5338640   3.3046550  15.4381645   8.3563519   3.1432095  16.2769520
   8.0732131   4.0252852  15.2660227   8.4395939   3.3872581  15.5366421
  16.6416585  26.3524788   8.1191278  16.4647471  26.9446485   8.7349027
  16.4407050  25.5938785   8.5002828  16.5858399  26.3278930   8.2663953
   5.6377989  31.2671399  10.4848957   6.5066230  31.2959886  10.5587292
   5.3648698  31.1755586  11.3084626   5.7258248  31.2578726  10.6174600
  15.2490532  10.3236992  10.2561176  14.6798146  10.0234825  10.8451641
  16.0031652  10.3492386  10.6940699  15.2763629  10.2831251  10.4078269
   5.0216161  30.8134098  13.2612758   4.2446195  30.7266290  13.6484270
   5.5096041  31.2085624  13.8669675   4.9789249  30.8589626  13.4079402
   9.4643342  33.6587104   1.7490639   8.8869190  33.9686143   2.3249899
   9.2503887  32.8159667   1.6773042   9.3474340  33.5799989   1.8235396
   1.9375981  19.5355685  26.5956817   1.7134107  19.1681225  25.8368240
   1.4862598  20.2821441  26.6033516   1.8378080  19.5915730  26.4847146
  21.6433360  12.7407348   9.5629936  21.8365218  12.8784394   8.7234354
  20.8556057  13.1043744   9.6545422  21.5555121  12.8147936   9.4524968
  20.5369186  22.6320500  24.5001125  20.6638765  22.5502725  23.6408496
  20.8914828  23.4069605  24.6870255  20.6080484  22.7344401  24.4007921
  31.3278341   1.6993992  15.5667901  30.8227134   1.4893978  14.8871624
  30.8578539   1.4474290  16.2572742  31.1837912   1.6311567  15.5683935
   4.4566643  15.8109772   9.0215697   3.8620674  16.4106894   8.8026204
   5.1819360  16.2785447   9.1500153   4.4759666  15.9686363   9.0081992
  17.2655357  15.6025159   0.2908833  16.6239298  15.4511034  -0.2805679
  16.9258643  15.3475904   1.0529692  17.1205807  15.5424917   0.3190453
  28.8874824   8.6011713  13.5921907  29.6575976   8.2550876  13.3724475
  28.5403822   8.0060451  14.1274393  28.9499704   8.4621351  13.6387968
  14.3916774  31.5679033  16.7694460  14.4605064  31.5142624  17.6375042
  14.8812294  32.2611697  16.5673051  14.4741619  31.6623891  16.8678127
  13.2161999  29.2437363   7.3580223  13.5110474  30.0359821   7.1422714
  13.3373165  29.2078519   8.2212615  13.2776463  29.3554664   7.4536699
  33.4814334   0.0735195  16.3161635  33.1468630  -0.5196684  16.8614435
  32.8733730   0.6987841  16.2950718  33.3421874   0.0782592  16.3935971
   1.5203117   9.5546930   5.0925316   1.1316131  10.2181451   5.5047001
   2.1932720   9.9321668   4.6853747   1.5623020   9.7084587   5.0932707
  16.7471253  23.5338943  26.1986058  17.4032485  23.0567424  26.5194969
  17.0941483  23.9114874  25.4928180  16.8953072  23.5191887  26.1417486
  33.5222621  15.1477964   9.4257552  33.0964219  14.6611626   8.8401038
  33.4231471  15.9615524   9.1272289  33.4447154  15.1961191   9.2951448
  21.8938279   9.0895019  -0.0816346  22.4416447   9.7677264  -0.1139781
  21.4957833   9.1838870   0.6889430  21.9159532   9.2036281   0.0274178
  16.3057768   4.4028249   2.9137666  17.0611644   4.0038123   2.7368076
  15.8227873   3.7748971   3.2792289  16.3460159   4.2511239   2.9416139
  16.4977444   9.1015022   0.2674003  16.5366638   8.6078136   0.9856620
  16.0599483   9.8094957   0.5285896  16.4388216   9.1331594   0.4120854
   8.9743125  21.7898114  28.7298218   8.3924758  21.8636210  28.0839451
   8.4893309  21.5594466  29.4174742   8.8167226  21.7666848  28.7359930
  19.4741738   9.5379066  25.1715422  19.5025110   9.5875561  26.0420990
  18.7183452   9.1317540  25.0137353  19.3667090   9.4852442  25.2768302
  26.9164050   2.9482958  27.6567351  27.0648784   3.2070720  26.8368997
  26.5640301   2.1559407  27.5611078  26.8862844   2.8694752  27.5215023
  29.1482861  32.0978801  20.4506932  29.1598437  32.3229425  19.6078668
  28.7678105  31.3127868  20.4481659  29.0937892  32.0151537  20.3258167
  12.2901952  14.9366985  30.0119352  12.3607194  15.8062778  30.0114989
  11.5813481  14.7881446  29.5255113  12.1959006  15.0432048  29.9400163
  29.3530464   9.5762032  21.1219600  29.6708560   8.8218993  21.4238933
  28.6176848   9.6863008  21.5783170  29.2913651   9.4810408  21.2339786
  11.6499865  30.3088595  19.6028502  11.0964346  29.8461724  19.1122992
  11.2270880  30.3981109  20.3606970  11.5057445  30.2536954  19.6423323
  24.5729947  12.9595583  18.4090550  25.2064633  13.1791179  18.9673073
  24.8159075  13.3408229  17.6628859  24.7024560  13.0483120  18.3812935
  20.7087660  23.3495672  13.6265760  21.5413141  23.3050091  13.8835149
  20.3392291  23.8734360  14.2183047  20.7771611  23.4203703  13.7519412
   7.9478538  24.4644547  23.2516645   8.1740141  24.9555159  23.9363896
   7.7841467  23.6835027  23.6044460   7.9570794  24.4216323  23.4049260
  16.3509799   3.9662573  16.9398623  16.2644530   3.2016623  16.5287094
  16.5430344   3.7377554  17.7596443  16.3665689   3.8195562  17.0002263
  15.7318497  10.6332142  14.0837126  15.6538618   9.7960932  13.8507228
  15.5032229  10.6339652  14.9256556  15.6865561  10.5096657  14.1736679
  24.6557461  21.8917441  21.9078088  24.4162833  21.1008310  22.1875429
  24.8724925  21.7573071  21.0734916  24.6523892  21.7550516  21.8258858
   2.1609773  19.3189728  18.0095220   2.1217839  18.5888934  18.4855330
   2.6780289  19.1008174  17.3415363   2.2315668  19.1788983  17.9811633
  18.4325386  35.3616496  24.4515753  17.8553117  35.6869913  25.0191140
  18.9848471  36.0237439  24.3184376  18.4288574  35.5075142  24.5157456
   0.3558265  27.4841714  28.8224472  -0.0827373  28.0099320  29.3631710
   1.1736261  27.7854943  28.8617863   0.4118478  27.6063490  28.9081349
  11.2676311  23.4088034  15.2973151  11.4399481  23.1836040  16.1223793
  11.2158322  22.6431806  14.8822522  11.2854338  23.2624383  15.3578806
   8.5091435  19.1464963   9.3774587   8.0914103  18.6907449   9.9930328
   8.3001935  19.9741378   9.5576978   8.4165704  19.2014327   9.4950169
  12.6884854  17.5166430   0.3165500  13.3231258  17.7860512   0.8511417
  12.6184607  18.1657138  -0.2621896  12.7718902  17.6523175   0.3100293
   6.7882007  27.4851298  23.6882591   7.4932808  27.5486112  23.1783843
   7.0824522  27.0647192  24.3938160   6.9358230  27.4324036  23.7171674
   5.7619942  20.9242446   4.4043604   5.8364785  20.0564952   4.3533373
   6.5845979  21.2054140   4.3308285   5.8945120  20.8375950   4.3859613
   4.7398245  17.4619782   0.0385101   4.6518313  16.9827271   0.7621915
   3.9502870  17.8170383  -0.0696509   4.6101963  17.4436319   0.1294358
   9.0425938  14.0235817  21.0124551   8.4139377  13.4188080  21.0258280
   8.8089794  14.5478082  20.3553777   8.9152187  14.0116835  20.9173667
  22.7421176  33.9695149  17.2509033  22.7606141  34.3097756  16.4477713
  23.4103905  34.3592219  17.6542313  22.8435694  34.0773461  17.1918423
  14.6771956  25.0158439  17.0149641  14.2182315  25.7271800  16.8040340
  14.9128319  24.6870837  16.2419658  14.6442056  25.0723586  16.8696170
  12.5055945  34.1279693  13.4121852  12.2398186  34.5574218  12.7007966
  11.9311404  33.4753367  13.4843867  12.3814750  34.0950010  13.3177643
   6.4844262  28.5754125   3.8419707   6.1320888  28.3712499   4.6135361
   5.8107006  28.8900154   3.3856137   6.3328540  28.5917251   3.8885338
  21.3489962  18.2891989  26.2639935  20.5600524  17.9908383  26.4869005
  21.7889047  17.5665653  26.0508711  21.2974358  18.1383777  26.2654383
  28.9183116  23.7712235  11.7990238  29.6340275  23.3072193  11.9823010
  28.9705276  23.8970907  10.9372980  29.0317512  23.7212736  11.6988022
  10.7589506   3.0374730  12.8583598  11.3861774   2.4390121  12.9561985
  10.8664058   3.5617682  13.5473502  10.8674787   3.0265173  12.9745901
   3.8852776  29.8049594   8.7436373   3.2758463  30.3814543   8.9831955
   4.6292675  30.1649512   9.0229637   3.9051569  29.9432982   8.8202865
  14.9247504  20.5241234   2.4379737  15.6223274  21.0477323   2.4189789
  15.1562823  19.8553700   1.9277746  15.0619984  20.5026824   2.3598010
  32.4237341  14.3470919  16.3079243  31.9379447  13.6302686  16.4142852
  33.1947836  14.1250348  16.6504340  32.4658728  14.2083991  16.3742309
   2.2444230   4.8681593  13.5578142   2.3145777   4.0064111  13.6744676
   2.2601901   5.1870245  14.3697391   2.2571154   4.7879645  13.6949859
   7.7810799  21.7816353  24.2722487   7.1412360  21.4375019  23.7892199
   8.4492671  21.2348008  24.1472292   7.7852666  21.6500211  24.1824269
   5.6168014  14.0971470   2.8665882   6.3020301  14.3227386   2.3759665
   5.9770042  13.6783361   3.5418594   5.7712334  14.0686047   2.8938648
  30.3853250  24.1001415  29.5910192  30.0442076  23.7980080  28.8470459
  31.1461020  24.4469738  29.3418956  30.4473162  24.1067433  29.4443178
  12.9001223  17.6021433   5.2845747  12.3775756  17.5143003   4.5914919
  12.4476897  17.2300005   5.9310658  12.7560984  17.5341940   5.2776916
   3.4221533  34.2423614   0.4306751   4.2320681  34.4844946   0.2149230
   3.5444567  33.6730206   1.0803153   3.5598612  34.1940261   0.4947693
  32.6430511  25.1051116   3.1093151  33.4530306  25.1039672   2.7851684
  32.6826763  25.6867337   3.7583787  32.7685547  25.1908612   3.1573112
  27.7060027  23.2685123   5.0299709  27.7935172  22.7743850   4.3163054
  27.3387290  22.7291999   5.6091039  27.6646764  23.1158576   5.0100963
   4.3980967   8.9755869   1.2684517   4.4304525   8.1093061   1.3666852
   5.1447903   9.1635484   0.8582598   4.5131790   8.8753849   1.2223690
  25.0496840  24.5709961   4.0185731  24.2621851  24.4728964   4.3810122
  25.5772424  24.1231506   4.5498531  25.0112867  24.4903486   4.1505950
  21.0442662   2.1074908   4.0376335  21.1118078   2.1205943   4.9073496
  21.3355422   1.3141124   3.8211948  21.0972714   1.9922273   4.1341358
  19.1330884   3.6564725   2.8384289  19.6351026   3.1405394   3.3313221
  19.7075342   4.1623752   2.4198315  19.2921041   3.6549895   2.8494039
  26.4123917  30.4847236  22.7787744  25.6462574  30.2640767  23.1330269
  26.7904592  30.9727792  23.3952199  26.3550663  30.5242253  22.9221665
  22.8124928   0.1578477  26.0851073  22.8530335   0.0106099  26.9440699
  22.0879078   0.6349045  25.9927320  22.7114463   0.2065687  26.1983490
  15.8323229  30.2849613   5.5129439  16.3866366  30.6800685   6.0586184
  15.8401740  29.4540153   5.7786739  15.9153653  30.2205787   5.6328052
   8.7510240  26.2378860  11.0517771   8.0795014  25.6817460  11.0216982
   9.1910052  26.0681105  10.3177912   8.7168205  26.1306524  10.9389097
  13.9824986  19.9682927  19.0325630  14.3651700  19.7343397  19.7808731
  14.2932129  20.7700896  18.8851893  14.0849257  20.0521755  19.1213334
   7.9029024   5.9983270  14.7332031   7.5491346   6.1073749  15.5231983
   8.0332006   6.8139999  14.4524224   7.8698910   6.1349266  14.8084242
   1.6236531  17.3613656  20.1047397   0.8780824  17.8077507  20.1822233
   1.3788378  16.5317726  20.2186751   1.4773547  17.3047578  20.1330161
  14.9103940  12.1411502   8.2436078  14.4257021  12.7937043   8.5604470
  14.9826372  11.5929198   8.9184134  14.8494673  12.1565604   8.3900945
  31.7898011  35.2342992  24.7937274  32.4989820  35.7354192  24.7095776
  32.0323014  34.6318103  25.3762555  31.9303846  35.2193249  24.8673487
   6.4503980  24.6517134  28.5674667   5.8566052  25.1927114  28.2270670
   6.6539180  24.1255593  27.9019737   6.3927466  24.6539068  28.4188771
  28.9618254   6.8921542  17.8249061  29.7069216   7.1474022  18.2001650
  28.4036064   6.8380374  18.4931886  28.9894295   6.9218653  17.9790592
   5.2063525  11.4826035  13.1237447   4.4065059  11.3821983  12.7901196
   5.6546176  11.8537366  12.4737763   5.1544178  11.5225959  12.9784477
  28.4380175  32.8157062   5.8179576  28.2921578  33.3921529   6.4563734
  28.1805183  32.0572115   6.1636741  28.3784319  32.7888138   5.9633333
   9.7223413   6.2162699   1.3413112   9.9293852   5.6618228   1.9822972
   9.0660155   6.6825356   1.6774242   9.6559727   6.2032428   1.4856475
  13.6729074   4.1482885  12.7480233  13.7407064   3.2797367  12.7015626
  13.3100557   4.3668110  11.9853139  13.6293221   4.0522654  12.6284921
  17.7316367  30.9896343  17.9849097  17.3119103  31.1678379  17.2411296
  18.5199820  30.7280939  17.7179762  17.7860915  30.9773224  17.8356120
  33.6586642  20.4729686  22.5738274  32.9766774  20.4270969  23.1159799
  33.7001443  21.3196502  22.3675441  33.5640478  20.5912624  22.6234423
  30.3769910  32.9962985  23.0179644  30.0179421  32.9215799  22.2263598
  30.5571496  33.8475243  23.0819798  30.3505646  33.1110046  22.9104853
  29.0749121  26.6356630   0.6279285  29.3694556  25.9360332   0.1979263
  29.0391932  26.3667847   1.4571268  29.1131458  26.4925946   0.6868989
   5.5867618   8.4490745  14.7036682   5.9081995   8.9323156  15.3550468
   6.2392867   8.4245794  14.1250883   5.7306361   8.5168426  14.7144209
  22.9048491  26.9962096   8.8567574  23.4612083  27.5746703   9.1987903
  23.3679771  26.2573409   8.8298065  23.0554485  26.9725156   8.9033015
   8.2857787   1.8759957  13.0841351   8.0025374   2.1135622  13.8743734
   9.0769850   2.2398627  13.0318701   8.3608138   1.9648398  13.1931496
  30.1715589  20.5620956   3.1753213  30.9546876  20.2028203   3.3123285
  30.3610682  21.3643146   2.8895361  30.3152394  20.6275272   3.1533439
   4.0012825  12.1243560  24.9400317   4.4265331  12.5608099  25.5643793
   4.3957604  11.3462842  24.9286263   4.1223729  12.0738924  25.0305759
  23.1186271  29.9479069  24.3286782  23.6061884  30.5826821  24.6757876
  22.3760474  29.9868359  24.7849666  23.0809558  30.0474276  24.4473570
  32.3255873  25.5910702  14.1146946  31.8769145  24.8991878  14.3995285
  32.7960205  25.8306105  14.8092818  32.3288035  25.5242498  14.2593753
  23.1934905   8.1934173  15.4367101  23.2141328   8.2016070  14.5645595
  23.1223083   9.0368445  15.6481421  23.1860256   8.3192189  15.3391075
  26.2444485  31.3655901   0.3534527  26.7764796  30.6976104   0.1748905
  26.5380437  31.6625857   1.1194387  26.3664103  31.3107896   0.4402273
  27.8430320  16.8931544   2.3519714  28.2875110  17.5834286   2.0568473
  27.8628279  16.9916677   3.2185991  27.9116131  17.0096743   2.4363954
  28.4639573   6.4503503  25.6112715  28.4446669   6.6097653  26.4687996
  29.2111731   6.0138369  25.5005332  28.5714865   6.4094174  25.7215877
   0.2593162  12.5650566  20.4352665  -0.5522187  12.2526329  20.3649759
   0.7176921  11.8818967  20.7256508   0.2071473  12.4179857  20.4677773
  28.2967078  14.6597831   9.5444202  27.6167952  14.1430109   9.3660915
  28.9864098  14.1374986   9.4318628  28.2981526  14.5062940   9.5014507
  28.9440963  17.1344573   5.1221687  28.7164301  17.9676897   5.2447754
  29.0448514  16.8279333   5.9327430  28.9253489  17.2122629   5.2600187
   5.0801967  17.8736591   5.1226896   4.8062919  17.2982717   5.7185453
   4.5868133  17.6971984   4.4251433   4.9668525  17.7625954   5.1076680
  23.6986615  23.9773328   8.3816135  23.6517836  23.1997199   8.7743729
  24.4344689  23.9276941   7.9154980  23.8004328  23.8551314   8.3707774
  31.9394877  33.0955410  29.4425821  31.3348625  32.6308846  29.8664474
  32.0004911  33.8288546  29.9112701  31.8591835  33.1352282  29.5744300
  14.6470559   0.7523887   1.0136111  15.4948890   0.5538433   0.9597594
  14.6268463   1.4129870   1.5831215  14.7693121   0.8206432   1.0897834
   7.5960958  11.5390527  21.4225674   6.8840599  11.0651469  21.2506437
   7.8178209  11.2909639  22.2290611   7.5236666  11.4323997  21.5163064
   0.6617743   0.3405223  11.2664168   0.4711336  -0.1249682  11.9792371
   1.4755143   0.0934706  11.0716539   0.7538189   0.2352652  11.3429456
  33.5257400  35.9223254  30.1316850  90.0000000  90.0000000  90.0000000
