Cpptraj Generated Restart                                                       
45715
  -4.8660000  15.4750000   3.7690000  -5.6180000  15.7820000   4.4960000
  -6.0470000  16.7400000   4.1990000  -5.1520000  15.8800000   5.4760000
  -6.7130000  14.7430000   4.5570000  -6.7610000  13.8560000   3.7100000
  -7.5930000  14.8690000   5.5550000  -7.4720000  15.6520000   6.1820000
  -8.6720000  13.9120000   5.8410000  -8.2430000  12.9110000   5.8800000
  -9.3090000  14.2270000   7.2150000  -9.6990000  15.2440000   7.1960000
 -10.1530000  13.5530000   7.3620000  -8.3740000  14.1070000   8.4330000
  -7.5220000  14.7760000   8.3110000  -9.1320000  14.5120000   9.6970000
  -9.9960000  13.8630000   9.8400000  -8.4750000  14.4330000  10.5620000
  -9.4690000  15.5450000   9.6100000  -7.8650000  12.6840000   8.6290000
  -7.2230000  12.4040000   7.7930000  -7.2710000  12.6290000   9.5410000
  -8.7030000  11.9910000   8.6990000  -9.7270000  13.8860000   4.7210000
  -9.7750000  12.9440000   3.9290000 -10.5660000  14.9290000   4.6460000
 -10.4710000  15.6600000   5.3360000 -11.6480000  15.0520000   3.6570000
 -12.3460000  14.2260000   3.7890000 -12.2050000  15.9730000   3.8250000
 -11.1620000  15.0690000   2.2070000 -11.8230000  14.5220000   1.3270000
  -9.9960000  15.6710000   1.9510000  -9.5100000  16.1210000   2.7130000
  -9.3870000  15.7070000   0.6190000 -10.0170000  16.2920000  -0.0500000
  -8.4080000  16.1830000   0.6800000  -9.1960000  14.3140000   0.0150000
  -9.6130000  14.0780000  -1.1180000  -8.6060000  13.3860000   0.7790000
  -8.3280000  13.6420000   1.7160000  -8.3230000  12.0080000   0.3260000
  -7.7300000  12.0800000  -0.5860000  -7.5230000  11.1680000   1.3740000
  -7.5630000  10.4160000   0.5870000  -6.9720000  12.0940000   1.5400000
  -6.0880000  10.5990000   1.5880000  -5.6650000  11.0170000   2.5020000
  -6.0690000   9.0760000   1.7880000  -6.3630000   8.5610000   0.8740000
  -5.0650000   8.7610000   2.0730000  -6.7590000   8.8000000   2.5860000
  -5.1220000  10.9230000   0.4390000  -5.0090000  12.0030000   0.3400000
  -4.1460000  10.4930000   0.6590000  -5.4890000  10.5140000  -0.5020000
  -9.6390000  11.3000000  -0.0500000  -9.7430000  10.7510000  -1.1480000
 -10.6470000  11.3270000   0.8340000 -10.5040000  11.8090000   1.7100000
 -11.9630000  10.7400000   0.5440000 -11.7650000   9.7120000   0.2390000
 -12.8910000  10.6130000   1.7740000 -12.4860000   9.8070000   2.3850000
 -12.9430000  11.8660000   2.6540000 -13.3970000  12.6920000   2.1070000
 -13.5200000  11.6730000   3.5580000 -11.9360000  12.1370000   2.9700000
 -14.3150000  10.2010000   1.3470000 -14.8300000  11.0510000   0.9000000
 -14.2400000   9.4190000   0.5910000 -15.1670000   9.6510000   2.4940000
 -15.3440000  10.4100000   3.2570000 -16.1300000   9.3310000   2.0970000
 -14.6620000   8.7980000   2.9480000 -12.6310000  11.3730000  -0.6790000
 -12.9660000  10.6210000  -1.5880000 -12.8080000  12.7000000  -0.7560000
 -12.4880000  13.2830000   0.0040000 -13.4280000  13.3430000  -1.9280000
 -14.4550000  12.9860000  -2.0120000 -13.4260000  14.8830000  -1.7900000
 -12.5810000  15.1950000  -1.1760000 -13.2590000  15.3080000  -2.7800000
 -14.7110000  15.5390000  -1.2530000 -14.5470000  16.6170000  -1.2400000
 -15.9270000  15.2680000  -2.1430000 -16.2280000  14.2220000  -2.0900000
 -16.7620000  15.8850000  -1.8120000 -15.6950000  15.5270000  -3.1760000
 -15.0390000  15.1050000   0.1690000 -14.2190000  15.3790000   0.8320000
 -15.9420000  15.6150000   0.5050000 -15.1920000  14.0270000   0.2080000
 -12.7220000  12.9430000  -3.2340000 -13.3630000  12.4390000  -4.1580000
 -11.4050000  13.1490000  -3.2930000 -10.9480000  13.5290000  -2.4770000
 -10.5730000  12.8650000  -4.4610000 -10.9270000  13.4640000  -5.3000000
  -9.1480000  13.3080000  -4.1160000  -9.1940000  14.3050000  -3.6800000
  -8.7360000  12.6380000  -3.3610000  -8.1720000  13.3900000  -5.2620000
  -7.6240000  14.9500000  -5.7890000  -8.0150000  15.8420000  -5.3220000
  -6.4120000  15.0780000  -7.0220000  -6.0610000  16.0510000  -7.3320000
  -5.7730000  13.6460000  -7.7580000  -5.0240000  13.7240000  -8.5320000
  -6.3180000  12.0830000  -7.2360000  -5.9180000  11.1950000  -7.7010000
  -7.5320000  11.9560000  -5.9980000  -7.8750000  10.9830000  -5.6800000
 -10.6350000  11.3870000  -4.8750000 -10.8600000  11.0740000  -6.0430000
 -10.4770000  10.4670000  -3.9160000 -10.3350000  10.7860000  -2.9690000
 -10.5280000   9.0210000  -4.1530000  -9.8450000   8.7640000  -4.9630000
 -10.1990000   8.5000000  -3.2540000 -11.9210000   8.5080000  -4.5240000
 -12.0530000   7.7450000  -5.4790000 -12.9660000   8.9290000  -3.8090000
 -12.8080000   9.5790000  -3.0530000 -14.3360000   8.4460000  -4.0270000
 -14.2800000   7.3590000  -4.0680000 -15.2650000   8.7890000  -2.8370000
 -14.6900000   8.6810000  -1.9170000 -15.8800000  10.1930000  -2.8430000
 -16.6420000  10.2810000  -3.6170000 -16.3360000  10.3850000  -1.8720000
 -15.1050000  10.9430000  -3.0060000 -16.4230000   7.7960000  -2.7360000
 -16.0180000   6.8120000  -2.4990000 -17.0920000   8.0860000  -1.9260000
 -16.9800000   7.7570000  -3.6720000 -14.8450000   8.9010000  -5.3940000
 -15.2040000   8.0560000  -6.2160000 -14.7890000  10.2070000  -5.7010000
 -14.4240000  10.8610000  -5.0230000 -15.1940000  10.7070000  -7.0140000
 -16.1310000  10.1970000  -7.2390000 -15.5670000  12.2080000  -6.9860000
 -16.5850000  12.2520000  -7.3740000 -15.6220000  12.5670000  -5.9580000
 -14.7260000  13.1910000  -7.8290000 -14.4170000  12.7290000  -8.7670000
 -13.4930000  13.6780000  -7.0720000 -12.8420000  12.8340000  -6.8430000
 -12.9420000  14.4010000  -7.6740000 -13.7970000  14.1590000  -6.1420000
 -15.5600000  14.4190000  -8.1900000 -15.8760000  14.9380000  -7.2850000
 -14.9640000  15.0870000  -8.8110000 -16.4390000  14.1200000  -8.7610000
 -14.2420000  10.2680000  -8.1330000 -14.7190000   9.9270000  -9.2080000
 -12.9270000  10.1970000  -7.8980000 -12.5670000  10.5140000  -7.0090000
 -11.9590000   9.7170000  -8.8930000 -11.9760000  10.3820000  -9.7560000
 -10.9570000   9.7390000  -8.4630000 -12.2480000   8.2900000  -9.3720000
 -12.3130000   8.0360000 -10.5750000 -12.4870000   7.3590000  -8.4400000
 -12.4350000   7.6230000  -7.4670000 -12.8850000   5.9890000  -8.7840000
 -12.1900000   5.6170000  -9.5360000 -12.7560000   5.0720000  -7.5560000
 -13.2840000   5.5000000  -6.7030000 -13.2140000   4.1120000  -7.7920000
 -11.3010000   4.7990000  -7.2040000 -10.5970000   4.0950000  -7.9070000
 -10.7930000   5.3690000  -6.1390000  -9.8050000   5.2640000  -5.9600000
 -11.3360000   6.0640000  -5.6450000 -14.2770000   5.9190000  -9.4420000
 -14.4270000   5.2030000 -10.4320000 -15.2700000   6.6830000  -8.9600000
 -15.0990000   7.2260000  -8.1260000 -16.5710000   6.8510000  -9.6430000
 -17.0480000   5.8720000  -9.6910000 -17.5220000   7.7810000  -8.8450000
 -16.9620000   8.6680000  -8.5510000 -18.7320000   8.2480000  -9.6760000
 -19.2840000   7.3890000 -10.0580000 -19.4020000   8.8580000  -9.0690000
 -18.4050000   8.8700000 -10.5090000 -18.0210000   7.0610000  -7.5710000
 -18.7570000   6.3030000  -7.8420000 -17.1810000   6.5450000  -7.1060000
 -18.6260000   7.9960000  -6.5140000 -19.5470000   8.4510000  -6.8790000
 -18.8600000   7.4230000  -5.6170000 -17.9130000   8.7780000  -6.2520000
 -16.3820000   7.2980000 -11.1030000 -16.8970000   6.6440000 -12.0040000
 -15.6210000   8.3670000 -11.3610000 -15.2300000   8.8710000 -10.5780000
 -15.3450000   8.8800000 -12.7110000 -16.3010000   9.1190000 -13.1770000
 -14.4980000  10.1720000 -12.6290000 -13.8930000  10.1550000 -11.7230000
 -13.7950000  10.1820000 -13.4620000 -15.2770000  11.5030000 -12.6810000
 -14.5590000  12.3070000 -12.5230000 -15.9130000  11.7220000 -14.0560000
 -16.7250000  11.0150000 -14.2270000 -16.3090000  12.7360000 -14.1150000
 -15.1600000  11.6010000 -14.8350000 -16.3720000  11.6440000 -11.6230000
 -15.9330000  11.5720000 -10.6280000 -16.8450000  12.6220000 -11.7130000
 -17.1300000  10.8700000 -11.7440000 -14.6910000   7.8250000 -13.6210000
 -15.1190000   7.6830000 -14.7650000 -13.7150000   7.0470000 -13.1300000
 -13.3730000   7.2460000 -12.2010000 -13.1680000   5.8780000 -13.8550000
 -12.7720000   6.2290000 -14.8080000 -11.9950000   5.2240000 -13.0890000
 -12.2850000   5.0620000 -12.0510000 -11.5610000   3.8750000 -13.6810000
 -11.3210000   3.9860000 -14.7380000 -10.6820000   3.5030000 -13.1540000
 -12.3520000   3.1330000 -13.5670000 -10.7700000   6.1440000 -13.1210000
 -11.0010000   7.1020000 -12.6560000  -9.9480000   5.6820000 -12.5750000
 -10.4550000   6.3170000 -14.1500000 -14.2660000   4.8630000 -14.2020000
 -14.4550000   4.5390000 -15.3720000 -15.0040000   4.3740000 -13.2010000
 -14.8100000   4.7120000 -12.2690000 -16.1110000   3.4120000 -13.3580000
 -15.6970000   2.4910000 -13.7680000 -16.6980000   3.0740000 -11.9660000
 -16.8380000   4.0060000 -11.4180000 -18.0660000   2.3750000 -12.0470000
 -17.9790000   1.4380000 -12.5960000 -18.4410000   2.1750000 -11.0430000
 -18.7990000   3.0150000 -12.5370000 -15.6930000   2.1850000 -11.1890000
 -15.7140000   1.1720000 -11.5920000 -14.6820000   2.5690000 -11.3240000
 -15.9520000   2.1300000  -9.6800000 -16.9060000   1.6470000  -9.4690000
 -15.1570000   1.5600000  -9.1980000 -15.9540000   3.1410000  -9.2730000
 -17.1640000   3.8880000 -14.3810000 -17.5460000   3.1280000 -15.2730000
 -17.6200000   5.1420000 -14.2810000 -17.2850000   5.7040000 -13.5120000
 -18.5120000   5.7740000 -15.2610000 -19.4130000   5.1670000 -15.3490000
 -18.9140000   7.1850000 -14.7840000 -18.0020000   7.7550000 -14.6040000
 -19.4550000   7.6820000 -15.5890000 -19.7860000   7.2370000 -13.5120000
 -19.3070000   6.6860000 -12.7030000 -19.9460000   8.6960000 -13.0790000
 -20.4700000   9.2670000 -13.8450000 -20.5050000   8.7430000 -12.1450000
 -18.9640000   9.1400000 -12.9130000 -21.1790000   6.6460000 -13.7290000
 -21.1020000   5.5810000 -13.9520000 -21.7690000   6.7570000 -12.8190000
 -21.6840000   7.1530000 -14.5500000 -17.8840000   5.8230000 -16.6660000
 -18.5000000   5.3590000 -17.6220000 -16.6510000   6.3300000 -16.7930000
 -16.1970000   6.6840000 -15.9630000 -15.9190000   6.4370000 -18.0670000
 -16.4750000   7.1080000 -18.7220000 -14.5420000   7.0660000 -17.8240000
 -14.6750000   8.0490000 -17.3730000 -13.9710000   6.4390000 -17.1390000
 -13.8270000   7.2030000 -19.0390000 -13.0000000   7.6530000 -18.8530000
 -15.7870000   5.0910000 -18.7970000 -16.0390000   5.0060000 -20.0010000
 -15.4750000   4.0160000 -18.0590000 -15.2630000   4.1680000 -17.0840000
 -15.4680000   2.6270000 -18.5530000 -14.6810000   2.5490000 -19.3040000
 -15.1160000   1.6540000 -17.4040000 -15.6730000   1.9400000 -16.5120000
 -15.4490000   0.1880000 -17.6990000 -14.9800000  -0.1250000 -18.6320000
 -15.0840000  -0.4460000 -16.8900000 -16.5280000   0.0520000 -17.7710000
 -13.6190000   1.7310000 -17.0760000 -13.3320000   2.7570000 -16.8470000
 -13.3980000   1.1100000 -16.2070000 -13.0260000   1.3850000 -17.9220000
 -16.7780000   2.2380000 -19.2640000 -16.7420000   1.5550000 -20.2890000
 -17.9330000   2.6790000 -18.7540000 -17.9030000   3.2770000 -17.9400000
 -19.2510000   2.3850000 -19.3220000 -19.2530000   1.3500000 -19.6630000
 -20.2910000   2.4990000 -18.1990000 -20.3560000   3.5270000 -17.8440000
 -21.2710000   2.1970000 -18.5700000 -20.0160000   1.8480000 -17.3690000
 -19.6430000   3.2570000 -20.5410000 -20.5970000   2.9170000 -21.2440000
 -18.9420000   4.3640000 -20.8180000 -18.1710000   4.6060000 -20.2130000
 -19.3480000   5.3550000 -21.8290000 -20.4140000   5.5460000 -21.7070000
 -18.6120000   6.6800000 -21.5650000 -17.5370000   6.5070000 -21.5240000
 -18.8150000   7.3730000 -22.3810000 -19.1850000   7.4370000 -20.0150000
 -18.4170000   8.5280000 -20.0800000 -19.1680000   4.9290000 -23.3050000
 -19.6470000   5.6430000 -24.1910000 -18.5060000   3.8010000 -23.6050000
 -18.1410000   3.2410000 -22.8480000 -18.2060000   3.3760000 -24.9860000
 -19.0430000   3.6770000 -25.6160000 -16.9610000   4.1200000 -25.5020000
 -16.7980000   3.8490000 -26.5450000 -17.1540000   5.1930000 -25.4780000
 -15.6860000   3.8510000 -24.7360000 -14.7130000   2.9080000 -25.0810000
 -13.7340000   3.0450000 -24.1690000 -12.8150000   2.4780000 -24.1600000
 -14.0530000   3.9950000 -23.2730000 -13.4740000   4.2840000 -22.4980000
 -15.2780000   4.5190000 -23.6170000 -15.8100000   5.3130000 -23.1150000
 -18.0650000   1.8520000 -25.1540000 -17.6040000   1.1440000 -24.2570000
 -18.4920000   1.3500000 -26.3250000 -18.8680000   2.0030000 -26.9970000
 -18.5380000  -0.0840000 -26.6820000 -18.9250000  -0.6380000 -25.8270000
 -19.5330000  -0.2540000 -27.8490000 -20.4670000   0.2390000 -27.5780000
 -19.1340000   0.2360000 -28.7370000 -19.8490000  -1.7210000 -28.1830000
 -18.9510000  -2.2140000 -28.5550000 -20.1910000  -2.2300000 -27.2820000
 -20.9340000  -1.8200000 -29.2590000 -21.8450000  -1.3510000 -28.8870000
 -20.5960000  -1.2820000 -30.1450000 -21.2090000  -3.2270000 -29.6110000
 -20.7050000  -3.9350000 -29.0980000 -22.0470000  -3.6580000 -30.5380000
 -22.7560000  -2.8410000 -31.2650000 -22.6660000  -1.8460000 -31.1150000
 -23.3890000  -3.1930000 -31.9690000 -22.1890000  -4.9330000 -30.7580000
 -21.6580000  -5.6040000 -30.2210000 -22.8290000  -5.2600000 -31.4680000
 -17.1650000  -0.6980000 -27.0010000 -16.9950000  -1.9120000 -26.8850000
 -16.1810000   0.1250000 -27.3830000 -16.3990000   1.1080000 -27.4620000
 -14.8170000  -0.3160000 -27.7280000 -14.8710000  -1.0090000 -28.5680000
 -13.9910000   0.8990000 -28.1740000 -14.4590000   1.3430000 -29.0530000
 -13.9930000   1.6460000 -27.3810000 -12.5570000   0.5670000 -28.5130000
 -12.1260000  -0.1150000 -29.6560000 -10.7900000  -0.2160000 -29.5410000
 -10.1400000  -0.6910000 -30.2600000 -10.3730000   0.3610000 -28.4000000
  -9.4120000   0.4090000 -28.0900000 -11.4730000   0.8610000 -27.7390000
 -11.4860000   1.3770000 -26.7900000 -14.1250000  -1.0690000 -26.5780000
 -13.4040000  -2.0420000 -26.8150000 -14.3840000  -0.6620000 -25.3310000
 -14.9800000   0.1440000 -25.2110000 -13.9490000  -1.3750000 -24.1310000
 -12.9000000  -1.6460000 -24.2510000 -14.0450000  -0.4020000 -22.9460000
 -13.4960000   0.4930000 -23.2370000 -15.0830000  -0.1110000 -22.7810000
 -13.4360000  -0.9080000 -21.6270000 -12.5010000  -1.4240000 -21.8410000
 -13.1300000   0.3110000 -20.7610000 -14.0390000   0.8960000 -20.6230000
 -12.7450000  -0.0060000 -19.7920000 -12.3730000   0.9280000 -21.2460000
 -14.3550000  -1.8430000 -20.8340000 -14.4420000  -2.8060000 -21.3380000
 -13.9410000  -2.0260000 -19.8430000 -15.3420000  -1.3940000 -20.7300000
 -14.7710000  -2.6640000 -23.9390000 -15.9580000  -2.6200000 -23.6020000
 -14.1210000  -3.8170000 -24.1420000 -13.1620000  -3.7580000 -24.4540000
 -14.7360000  -5.1530000 -24.0890000 -15.3960000  -5.1910000 -23.2230000
 -15.6150000  -5.3700000 -25.3380000 -16.2720000  -4.5120000 -25.4730000
 -14.9750000  -5.4320000 -26.2180000 -16.4950000  -6.6000000 -25.2760000
 -17.4890000  -6.8480000 -24.3220000 -18.1000000  -7.9820000 -24.7070000
 -18.9270000  -8.4480000 -24.1920000 -17.5200000  -8.4680000 -25.8180000
 -17.8090000  -9.3040000 -26.3060000 -16.5150000  -7.6070000 -26.1960000
 -15.8860000  -7.6820000 -27.0710000 -13.6810000  -6.2580000 -23.8840000
 -13.6660000  -7.2770000 -24.5790000 -12.7630000  -6.0530000 -22.9350000
 -12.8110000  -5.2080000 -22.3840000 -11.6550000  -6.9770000 -22.6490000
 -11.9940000  -7.9910000 -22.8610000 -10.4650000  -6.6890000 -23.5790000
  -9.6930000  -7.4430000 -23.4240000 -10.7990000  -6.7520000 -24.6150000
  -9.9180000  -5.4050000 -23.3400000  -9.2660000  -5.2220000 -24.0200000
 -11.2320000  -6.9500000 -21.1730000 -11.4570000  -5.9840000 -20.4390000
 -10.6390000  -8.0650000 -20.7280000 -10.4400000  -8.7900000 -21.4030000
 -10.4710000  -8.4020000 -19.3020000 -11.4390000  -8.2840000 -18.8150000
 -10.0760000  -9.8860000 -19.1610000  -9.1670000 -10.0620000 -19.7360000
  -9.8200000 -10.3030000 -17.7160000 -10.6940000 -10.0830000 -17.1020000
  -9.5990000 -11.3690000 -17.6660000  -8.9570000  -9.7640000 -17.3240000
 -11.1930000 -10.7990000 -19.6970000 -11.3460000 -10.6420000 -20.7650000
 -10.9300000 -11.8460000 -19.5490000 -12.1270000 -10.5980000 -19.1720000
  -9.5200000  -7.4530000 -18.5600000  -9.7210000  -7.1900000 -17.3730000
  -8.5450000  -6.8650000 -19.2620000  -8.4260000  -7.1480000 -20.2240000
  -7.6240000  -5.8550000 -18.7150000  -7.0100000  -6.3590000 -17.9680000
  -6.6640000  -5.3390000 -19.8050000  -6.2650000  -6.2000000 -20.3400000
  -7.2630000  -4.3890000 -20.8410000  -7.4800000  -3.4200000 -20.3910000
  -6.5480000  -4.2470000 -21.6510000  -8.1770000  -4.8140000 -21.2550000
  -5.5810000  -4.6770000 -19.2020000  -5.0530000  -5.4060000 -18.8680000
  -8.3460000  -4.7200000 -17.9780000  -8.0200000  -4.4120000 -16.8280000
  -9.3830000  -4.1380000 -18.5930000  -9.6140000  -4.4270000 -19.5330000
 -10.2210000  -3.1120000 -17.9690000  -9.5690000  -2.3580000 -17.5300000
 -11.0840000  -2.4110000 -19.0230000 -11.7340000  -3.1420000 -19.5030000
 -11.7140000  -1.6780000 -18.5180000 -10.2770000  -1.6990000 -20.0830000
  -9.8960000  -2.2360000 -21.3160000  -9.1740000  -1.2800000 -21.9250000
  -8.7230000  -1.3750000 -22.9020000  -9.0840000  -0.1900000 -21.1430000
  -8.5890000   0.6570000 -21.3830000  -9.7680000  -0.4380000 -19.9730000
  -9.8800000   0.2270000 -19.1290000 -11.0910000  -3.6490000 -16.8300000
 -11.2730000  -2.9490000 -15.8400000 -11.6000000  -4.8810000 -16.9100000
 -11.4170000  -5.4320000 -17.7370000 -12.4320000  -5.4710000 -15.8470000
 -13.2580000  -4.7910000 -15.6410000 -13.0340000  -6.8120000 -16.3060000
 -12.2300000  -7.5470000 -16.3410000 -13.7380000  -7.1460000 -15.5430000
 -13.7530000  -6.8430000 -17.6510000 -14.2350000  -5.6710000 -18.2790000
 -14.1350000  -4.7070000 -17.8040000 -14.8400000  -5.7440000 -19.5480000
 -15.1870000  -4.8470000 -20.0390000 -14.9960000  -6.9930000 -20.1860000
 -15.6000000  -7.0540000 -21.4020000 -15.7120000  -7.9590000 -21.7020000
 -14.5490000  -8.1680000 -19.5470000 -14.6940000  -9.1290000 -20.0170000
 -13.9370000  -8.0880000 -18.2820000 -13.6000000  -8.9910000 -17.7940000
 -11.6520000  -5.6340000 -14.5310000 -12.1800000  -5.3720000 -13.4500000
 -10.3660000  -5.9880000 -14.6050000  -9.9860000  -6.2490000 -15.5030000
  -9.4840000  -6.0040000 -13.4320000  -9.9640000  -6.5800000 -12.6410000
  -8.1710000  -6.7090000 -13.7840000  -7.6810000  -6.1550000 -14.5840000
  -7.5320000  -6.6510000 -12.9030000  -8.2290000  -8.1790000 -14.1840000
  -9.4170000  -8.9470000 -14.1440000 -10.3570000  -8.5080000 -13.8440000
  -9.3930000 -10.3110000 -14.4970000 -10.3080000 -10.8850000 -14.4830000
  -8.1790000 -10.9200000 -14.8860000  -8.1460000 -12.2210000 -15.2770000
  -9.0060000 -12.6350000 -15.1700000  -6.9920000 -10.1670000 -14.8860000
  -6.0620000 -10.6480000 -15.1510000  -7.0220000  -8.8010000 -14.5540000
  -6.1100000  -8.2230000 -14.5800000  -9.2400000  -4.5930000 -12.8630000
  -9.2300000  -4.4110000 -11.6450000  -9.1280000  -3.5710000 -13.7220000
  -9.1290000  -3.7770000 -14.7110000  -9.0720000  -2.1580000 -13.2990000
  -8.3200000  -2.0710000 -12.5150000  -8.6110000  -1.2440000 -14.4630000
  -9.2320000  -1.4490000 -15.3350000  -8.7570000   0.2510000 -14.1220000
  -8.1710000   0.4980000 -13.2360000  -8.4200000   0.8660000 -14.9560000
  -9.8020000   0.5040000 -13.9430000  -7.1380000  -1.5610000 -14.8150000
  -6.4900000  -1.2230000 -14.0060000  -7.0100000  -2.6390000 -14.9120000
  -6.6540000  -0.9390000 -16.1290000  -6.5940000   0.1460000 -16.0440000
  -5.6600000  -1.3250000 -16.3530000  -7.3300000  -1.2080000 -16.9410000
 -10.3980000  -1.7150000 -12.6550000 -10.3690000  -1.0010000 -11.6570000
 -11.5550000  -2.1850000 -13.1370000 -11.5320000  -2.7030000 -14.0040000
 -12.8470000  -2.0210000 -12.4430000 -12.9970000  -0.9530000 -12.2860000
 -14.0480000  -2.5160000 -13.2740000 -13.8750000  -3.5410000 -13.6000000
 -15.3630000  -2.4820000 -12.4830000 -15.5440000  -1.4800000 -12.0930000
 -16.1920000  -2.7660000 -13.1300000 -15.3300000  -3.1900000 -11.6550000
 -14.2450000  -1.6350000 -14.5120000 -13.3440000  -1.6260000 -15.1240000
 -15.0630000  -2.0330000 -15.1130000 -14.4820000  -0.6130000 -14.2150000
 -12.8080000  -2.6450000 -11.0470000 -13.1160000  -1.9490000 -10.0900000
 -12.4020000  -3.9110000 -10.8870000 -12.1970000  -4.4550000 -11.7130000
 -12.2070000  -4.5280000  -9.5610000 -13.1820000  -4.6080000  -9.0800000
 -11.6430000  -5.9530000  -9.7410000 -12.4850000  -6.6220000  -9.9190000
 -11.0020000  -5.9810000 -10.6220000 -10.8280000  -6.5300000  -8.5830000
  -9.8020000  -7.1530000  -8.7930000 -11.2100000  -6.3480000  -7.3380000
 -10.6160000  -6.7270000  -6.6140000 -12.0290000  -5.8080000  -7.0990000
 -11.3490000  -3.6490000  -8.6310000 -11.7720000  -3.3690000  -7.5080000
 -10.1860000  -3.1880000  -9.1010000  -9.8910000  -3.4830000 -10.0200000
  -9.3320000  -2.2590000  -8.3600000  -9.0120000  -2.7540000  -7.4430000
  -8.0880000  -1.9560000  -9.2160000  -7.5390000  -2.8840000  -9.3760000
  -8.4080000  -1.5880000 -10.1910000  -7.1440000  -0.9070000  -8.6070000
  -7.6830000   0.0220000  -8.4210000  -6.5600000  -1.4240000  -7.2990000
  -6.1160000  -2.4090000  -7.4450000  -5.7950000  -0.7350000  -6.9400000
  -7.3400000  -1.4750000  -6.5390000  -6.0140000  -0.6060000  -9.5910000
  -6.4180000  -0.1360000 -10.4870000  -5.2830000   0.0630000  -9.1370000
  -5.5040000  -1.5280000  -9.8690000 -10.0840000  -0.9770000  -7.9480000
 -10.1530000  -0.6500000  -6.7610000 -10.6890000  -0.2860000  -8.9190000
 -10.6070000  -0.6180000  -9.8690000 -11.4440000   0.9430000  -8.6950000
 -10.7700000   1.6630000  -8.2300000 -11.8980000   1.5140000 -10.0460000
 -12.5770000   0.8190000 -10.5410000 -12.4120000   2.4620000  -9.8870000
 -11.0320000   1.6890000 -10.6860000 -12.6300000   0.7490000  -7.7350000
 -12.8890000   1.6160000  -6.9070000 -13.3300000  -0.3870000  -7.8050000
 -13.0870000  -1.0400000  -8.5360000 -14.4310000  -0.7490000  -6.8980000
 -15.1130000   0.0990000  -6.8380000 -15.2430000  -1.9430000  -7.4470000
 -14.5600000  -2.7440000  -7.7280000 -16.2600000  -2.5050000  -6.4430000
 -16.9310000  -1.7170000  -6.1030000 -16.8490000  -3.2920000  -6.9150000
 -15.7530000  -2.9400000  -5.5820000 -16.0420000  -1.5070000  -8.6820000
 -15.3850000  -1.0830000  -9.4410000 -16.5540000  -2.3670000  -9.1130000
 -16.7760000  -0.7530000  -8.4000000 -13.9230000  -0.9980000  -5.4770000
 -14.5300000  -0.4940000  -4.5380000 -12.8020000  -1.7050000  -5.2880000
 -12.3360000  -2.1070000  -6.0890000 -12.1780000  -1.8630000  -3.9690000
 -12.8970000  -2.3330000  -3.2980000 -10.9660000  -2.7960000  -4.0920000
 -10.2120000  -2.3580000  -4.7470000 -10.5300000  -2.9480000  -3.1050000
 -11.2740000  -3.7590000  -4.4990000 -11.7980000  -0.5070000  -3.3420000
 -12.1580000  -0.2210000  -2.2000000 -11.1140000   0.3470000  -4.1030000
 -10.8240000   0.0320000  -5.0170000 -10.7460000   1.7100000  -3.7040000
 -10.1670000   1.6600000  -2.7820000  -9.8510000   2.3100000  -4.7930000
 -10.4090000   2.3230000  -5.7290000  -9.6270000   3.3420000  -4.5240000
  -8.5250000   1.5590000  -5.0100000  -8.0040000   0.8940000  -4.0830000
  -7.9370000   1.7100000  -6.1000000 -11.9630000   2.6160000  -3.4250000
 -11.9880000   3.3520000  -2.4340000 -12.9970000   2.5590000  -4.2710000
 -12.8980000   1.9880000  -5.0980000 -14.2900000   3.2140000  -4.0560000
 -14.1180000   4.2870000  -3.9710000 -15.1850000   2.9820000  -5.2900000
 -14.7170000   3.4650000  -6.1480000 -15.2320000   1.9120000  -5.4930000
 -16.6310000   3.4930000  -5.1790000 -17.1660000   2.8990000  -4.4380000
 -16.7040000   4.9600000  -4.7760000 -16.0490000   5.5610000  -5.4070000
 -17.7300000   5.3200000  -4.8550000 -16.3930000   5.0600000  -3.7360000
 -17.3320000   3.3470000  -6.5290000 -17.2870000   2.3090000  -6.8580000
 -18.3780000   3.6410000  -6.4350000 -16.8510000   3.9850000  -7.2700000
 -14.9540000   2.7510000  -2.7500000 -15.3270000   3.5800000  -1.9280000
 -15.0700000   1.4390000  -2.5300000 -14.7380000   0.7990000  -3.2370000
 -15.7020000   0.8740000  -1.3360000 -16.6790000   1.3480000  -1.2410000
 -15.9420000  -0.6310000  -1.5670000 -16.2140000  -0.7540000  -2.6150000
 -15.0230000  -1.1940000  -1.4020000 -17.1000000  -1.2160000  -0.7340000
 -17.8320000  -0.4370000  -0.5180000 -17.8020000  -2.3210000  -1.5230000
 -17.0830000  -3.0870000  -1.8120000 -18.5860000  -2.7730000  -0.9150000
 -18.2570000  -1.9020000  -2.4210000 -16.6220000  -1.8300000   0.5780000
 -16.0520000  -1.0950000   1.1470000 -17.4820000  -2.1490000   1.1670000
 -15.9940000  -2.6980000   0.3740000 -14.9180000   1.2250000  -0.0560000
 -15.5150000   1.6360000   0.9360000 -13.5770000   1.1980000  -0.0950000
 -13.1340000   0.8390000  -0.9280000 -12.7230000   1.7600000   0.9630000
 -12.9000000   1.1950000   1.8790000 -11.2430000   1.5900000   0.5540000
 -11.1180000   0.5700000   0.1920000 -11.0100000   2.2480000  -0.2830000
 -10.2100000   1.8160000   1.6760000 -10.5490000   1.3210000   2.5860000
  -8.8750000   1.1920000   1.2680000  -8.5070000   1.6570000   0.3540000
  -8.1420000   1.3330000   2.0630000  -8.9960000   0.1220000   1.1020000
  -9.9620000   3.2970000   1.9700000 -10.8290000   3.7420000   2.4590000
  -9.1210000   3.4020000   2.6550000  -9.7360000   3.8340000   1.0490000
 -13.0850000   3.2280000   1.2430000 -13.3860000   3.6080000   2.3770000
 -13.1200000   4.0580000   0.2030000 -12.9070000   3.6810000  -0.7100000
 -13.4020000   5.4970000   0.3210000 -12.8800000   5.8620000   1.2050000
 -12.8290000   6.3010000  -0.8660000 -13.1530000   7.3380000  -0.7790000
 -11.3010000   6.2960000  -0.8800000 -10.9160000   5.2760000  -0.8740000
 -10.9400000   6.8130000  -1.7690000 -10.9280000   6.8230000  -0.0020000
 -13.2450000   5.8090000  -2.1150000 -12.8190000   4.9590000  -2.2450000
 -14.8830000   5.8290000   0.5750000 -15.1870000   6.9990000   0.7900000
 -15.7930000   4.8470000   0.6490000 -15.5230000   3.9210000   0.3510000
 -17.2100000   5.0600000   1.0010000 -17.3730000   6.1180000   1.2070000
 -18.0950000   4.7110000  -0.1980000 -19.1170000   5.0300000   0.0040000
 -17.7320000   5.2400000  -1.0790000 -18.0790000   3.3180000  -0.4350000
 -18.5220000   3.1530000  -1.2700000 -17.7010000   4.3050000   2.2510000
 -18.7270000   4.7020000   2.8080000 -16.9750000   3.2960000   2.7590000
 -16.2560000   2.9010000   2.1700000 -17.3640000   2.5320000   3.9720000
 -18.1020000   3.1110000   4.5280000 -18.0400000   1.1870000   3.6280000
 -18.5130000   0.8090000   4.5340000 -19.1160000   1.2670000   2.5430000
 -18.6660000   1.5080000   1.5800000 -19.6310000   0.3090000   2.4640000
 -19.8450000   2.0340000   2.8050000 -17.0870000   0.2390000   3.2100000
 -17.5560000  -0.5750000   3.0130000 -16.2230000   2.2610000   4.9690000
 -16.4790000   1.7090000   6.0410000 -14.9890000   2.7090000   4.6910000
 -14.8240000   3.0970000   3.7730000 -13.8320000   2.5920000   5.6070000
 -14.1500000   2.1100000   6.5320000 -12.7140000   1.7110000   5.0080000
 -12.3690000   2.1470000   4.0710000 -11.4990000   1.6130000   5.9310000
 -11.7920000   1.1980000   6.8960000 -10.7440000   0.9710000   5.4760000
 -11.0470000   2.5930000   6.0840000 -13.2110000   0.2910000   4.7150000
 -14.0510000   0.3200000   4.0210000 -12.4140000  -0.2940000   4.2560000
 -13.5280000  -0.1910000   5.6400000 -13.2980000   3.9700000   5.9980000
 -13.2500000   4.2940000   7.1860000 -12.9250000   4.7920000   5.0100000
 -13.0030000   4.4510000   4.0630000 -12.3390000   6.1230000   5.2170000
 -11.4680000   5.9660000   5.8530000 -11.8180000   6.6720000   3.8690000
 -11.5880000   5.8230000   3.2250000 -12.6000000   7.2510000   3.3770000
 -10.5240000   7.5110000   3.9650000  -9.7670000   6.9430000   4.5060000
  -9.9900000   7.7640000   2.5540000 -10.7290000   8.2980000   1.9570000
  -9.0770000   8.3570000   2.6040000  -9.7480000   6.8130000   2.0790000
 -10.7120000   8.8590000   4.6630000 -10.6880000   8.7080000   5.7420000
  -9.9010000   9.5410000   4.4070000 -11.6630000   9.3140000   4.3870000
 -13.2530000   7.1200000   5.9780000 -12.7340000   7.8320000   6.8380000
 -14.5930000   7.1730000   5.7700000 -15.3830000   6.4770000   4.7600000
 -15.5420000   5.4440000   5.0700000 -14.9080000   6.5070000   3.7790000
 -16.7360000   7.1890000   4.7150000 -17.5420000   6.5050000   4.4480000
 -16.7030000   8.0230000   4.0150000 -16.9040000   7.7220000   6.1340000
 -17.3470000   6.9420000   6.7540000 -17.5300000   8.6140000   6.1550000
 -15.4680000   8.0310000   6.5810000 -15.2420000   9.0720000   6.3510000
 -15.2800000   7.8010000   8.0880000 -15.0240000   8.7360000   8.8490000
 -15.3610000   6.5390000   8.5170000 -15.5600000   5.8110000   7.8450000
 -15.2250000   6.1580000   9.9210000 -15.8210000   6.8570000  10.5070000
 -15.8430000   4.7760000  10.1470000 -15.2270000   4.0270000   9.6480000
 -15.8390000   4.5610000  11.2150000 -17.2710000   4.6850000   9.6350000
 -18.2910000   5.4330000  10.2550000 -18.0710000   6.0270000  11.1300000
 -19.5960000   5.4200000   9.7310000 -20.3760000   5.9960000  10.2080000
 -19.8870000   4.6570000   8.5870000 -20.8900000   4.6460000   8.1860000
 -18.8730000   3.9040000   7.9680000 -19.0970000   3.3140000   7.0920000
 -17.5670000   3.9200000   8.4900000 -16.7880000   3.3490000   8.0060000
 -13.7890000   6.2740000  10.4480000 -13.6150000   6.6380000  11.6110000
 -12.7590000   6.0480000   9.6180000 -12.9440000   5.7500000   8.6700000
 -11.3650000   6.3040000  10.0160000 -11.1930000   5.7600000  10.9450000
 -10.3570000   5.7480000   8.9980000  -9.3960000   5.6260000   9.4980000
 -10.6950000   4.7720000   8.6500000 -10.1790000   6.5950000   7.8820000
  -9.4880000   6.2240000   7.3280000 -11.1130000   7.7910000  10.3190000
 -10.5380000   8.1150000  11.3610000 -11.5970000   8.7050000   9.4660000
 -11.9980000   8.3730000   8.6010000 -11.5440000  10.1480000   9.6960000
 -10.5020000  10.4290000   9.8480000 -12.0470000  10.8720000   8.4410000
 -13.0830000  10.6030000   8.2380000 -11.9800000  11.9500000   8.5900000
 -11.4320000  10.5950000   7.5840000 -12.3180000  10.5740000  10.9620000
 -11.7770000  11.2980000  11.8000000 -13.5640000  10.1020000  11.1250000
 -13.9600000   9.5540000  10.3750000 -14.3710000  10.2890000  12.3450000
 -14.5720000  11.3540000  12.4590000 -15.7320000   9.5600000  12.2060000
 -15.5340000   8.5670000  11.8030000 -16.4470000   9.3640000  13.5560000
 -16.5700000  10.3190000  14.0670000 -17.4290000   8.9140000  13.4100000
 -15.8780000   8.6860000  14.1910000 -16.6460000  10.3190000  11.2130000
 -17.0310000  11.2240000  11.6830000 -16.0630000  10.6280000  10.3450000
 -17.8310000   9.4920000  10.6960000 -18.5330000   9.2790000  11.5020000
 -18.3520000  10.0580000   9.9250000 -17.4770000   8.5550000  10.2650000
 -13.5910000   9.8600000  13.6010000 -13.4170000  10.6650000  14.5180000
 -13.0940000   8.6190000  13.6340000 -13.2680000   8.0110000  12.8460000
 -12.2930000   8.0760000  14.7320000 -12.9020000   8.0630000  15.6360000
 -11.9020000   6.6300000  14.3990000 -12.8090000   6.0270000  14.3560000
 -11.4490000   6.6050000  13.4080000 -10.9370000   5.9960000  15.3840000
  -9.5930000   5.7780000  15.0240000  -9.2400000   6.0610000  14.0440000
  -8.7050000   5.1870000  15.9420000  -7.6750000   5.0190000  15.6640000
  -9.1580000   4.8080000  17.2180000  -8.4780000   4.3440000  17.9170000
 -10.4980000   5.0290000  17.5810000 -10.8460000   4.7320000  18.5590000
 -11.3820000   5.6280000  16.6670000 -12.4120000   5.7980000  16.9440000
 -11.0490000   8.9230000  15.0390000 -10.8050000   9.2520000  16.2010000
 -10.2760000   9.3090000  14.0180000 -10.5060000   8.9880000  13.0880000
  -9.1080000  10.1790000  14.1800000  -8.4170000   9.6760000  14.8570000
  -8.3730000  10.3640000  12.8400000  -8.0090000   9.3880000  12.5190000
  -9.0550000  10.7530000  12.0840000  -7.1980000  11.3400000  13.0060000
  -7.5960000  12.3530000  13.0680000  -6.6990000  11.1230000  13.9500000
  -6.1310000  11.2760000  11.8990000  -5.8290000  10.1790000  11.3720000
  -5.4950000  12.3320000  11.6580000  -9.4530000  11.5280000  14.8410000
  -8.7900000  11.9250000  15.8030000 -10.4840000  12.2310000  14.3530000
 -10.9920000  11.8580000  13.5630000 -10.8880000  13.5400000  14.9000000
  -9.9970000  14.1650000  14.9690000 -11.8770000  14.2620000  13.9650000
 -12.7150000  13.5970000  13.7550000 -12.4260000  15.5560000  14.5760000
 -11.6050000  16.1970000  14.8990000 -13.0230000  16.0960000  13.8410000
 -13.0670000  15.3320000  15.4290000 -11.1870000  14.6330000  12.6470000
 -10.3380000  15.2900000  12.8370000 -10.8330000  13.7350000  12.1400000
 -11.8900000  15.1450000  11.9900000 -11.4410000  13.4200000  16.3270000
 -11.1050000  14.2430000  17.1830000 -12.2420000  12.3860000  16.6130000
 -12.4900000  11.7510000  15.8680000 -12.6810000  12.0550000  17.9740000
 -13.2140000  12.9080000  18.3940000 -13.6230000  10.8410000  17.9240000
 -13.7330000  10.4390000  18.9320000 -13.1520000  10.0700000  17.3160000
 -15.0280000  11.1220000  17.3670000 -14.9550000  11.6400000  16.4110000
 -15.7530000   9.7940000  17.1550000 -15.1900000   9.1820000  16.4510000
 -15.8300000   9.2650000  18.1050000 -16.7490000   9.9760000  16.7510000
 -15.8540000  11.9730000  18.3280000 -16.8790000  12.0590000  17.9680000
 -15.8730000  11.5080000  19.3140000 -15.4300000  12.9750000  18.4050000
 -11.5100000  11.7460000  18.9240000 -11.5020000  12.2010000  20.0690000
 -10.5410000  10.9460000  18.4680000 -10.6100000  10.6240000  17.5130000
  -9.5370000  10.2950000  19.3150000  -8.7010000   9.9810000  18.6900000
  -9.1590000  11.0060000  20.0500000 -10.0640000   9.0550000  20.0640000
  -9.3700000   8.5200000  20.9310000 -11.2800000   8.6010000  19.7370000
 -11.7550000   9.0620000  18.9740000 -11.9960000   7.4720000  20.3480000
 -11.2920000   6.6480000  20.4610000 -12.5120000   7.8540000  21.7500000
 -12.7730000   6.9390000  22.2800000 -11.7010000   8.3060000  22.3210000
 -13.7120000   8.7860000  21.7840000 -15.0180000   8.2600000  21.8370000
 -15.1740000   7.1920000  21.8520000 -16.1270000   9.1240000  21.8950000
 -17.1280000   8.7220000  21.9480000 -15.9360000  10.5210000  21.8950000
 -17.0140000  11.3500000  21.9410000 -16.7700000  12.2640000  21.7790000
 -14.6270000  11.0510000  21.8470000 -14.4740000  12.1200000  21.8530000
 -13.5200000  10.1800000  21.8000000 -12.5180000  10.5840000  21.7830000
 -13.1310000   6.9920000  19.4200000 -13.4660000   7.6610000  18.4400000
 -13.7030000   5.8140000  19.6860000 -13.4960000   5.3690000  20.5690000
 -14.7150000   5.1730000  18.8370000 -14.7140000   5.6470000  17.8560000
 -14.3380000   3.7030000  18.6030000 -13.3090000   3.6540000  18.2480000
 -14.3850000   3.1570000  19.5460000 -15.2080000   3.0240000  17.5910000
 -16.3230000   2.3180000  17.8750000 -16.6830000   2.1270000  18.8750000
 -16.9140000   1.8940000  16.7000000 -17.7050000   1.2660000  16.6850000
 -16.1870000   2.2830000  15.5940000 -16.3320000   2.0550000  14.2180000
 -17.1560000   1.4670000  13.8420000 -15.3690000   2.5610000  13.3310000
 -15.4620000   2.3840000  12.2700000 -14.2710000   3.2830000  13.8300000
 -13.5230000   3.6580000  13.1460000 -14.1280000   3.4970000  15.2150000
 -13.2610000   4.0210000  15.5880000 -15.0820000   3.0070000  16.1340000
 -16.1360000   5.3340000  19.4160000 -16.6140000   4.5110000  20.1970000
 -16.8300000   6.4100000  19.0290000 -16.3820000   7.0770000  18.4180000
 -18.1550000   6.7480000  19.5660000 -18.0910000   6.7420000  20.6540000
 -18.4990000   8.1770000  19.1260000 -18.5600000   8.2330000  18.0390000
 -19.4600000   8.4700000  19.5490000 -17.7390000   8.8720000  19.4810000
 -19.2900000   5.7690000  19.1760000 -20.2950000   5.6830000  19.8850000
 -19.1780000   5.0740000  18.0330000 -18.3340000   5.1840000  17.4900000
 -20.3060000   4.3440000  17.4310000 -21.1620000   5.0190000  17.4260000
 -19.9810000   4.0230000  15.9640000 -19.4280000   4.8590000  15.5360000
 -19.3270000   3.1520000  15.9170000 -21.2020000   3.7730000  15.0950000
 -21.5930000   4.7430000  14.1530000 -21.0300000   5.6590000  14.0490000
 -22.7050000   4.5170000  13.3250000 -22.9780000   5.2550000  12.5850000
 -23.4470000   3.3290000  13.4450000 -24.3000000   3.1560000  12.8060000
 -23.0660000   2.3600000  14.3890000 -23.6260000   1.4400000  14.4740000
 -21.9410000   2.5780000  15.2060000 -21.6450000   1.8150000  15.9110000
 -20.7370000   3.0760000  18.1990000 -21.9310000   2.8720000  18.4230000
 -19.7770000   2.2280000  18.5940000 -18.8200000   2.5000000  18.4190000
 -20.0170000   0.9140000  19.2220000 -19.9750000   1.0320000  20.3040000
 -21.0140000   0.5570000  18.9620000 -19.0150000  -0.1720000  18.8010000
 -18.5530000  -0.1940000  17.6560000 -18.6860000  -1.0900000  19.7170000
 -19.2160000  -1.0790000  20.5760000 -17.6060000  -2.0970000  19.5900000
 -16.6650000  -1.5750000  19.4170000 -17.4930000  -2.8370000  20.9400000
 -17.1350000  -2.1190000  21.6780000 -18.4860000  -3.1690000  21.2430000
 -16.5650000  -4.0630000  20.9750000 -16.9990000  -4.8440000  20.3510000
 -15.5830000  -3.8020000  20.5800000 -16.4120000  -4.5800000  22.4180000
 -15.4980000  -4.1670000  22.8450000 -17.2540000  -4.2340000  23.0180000
 -16.3890000  -6.0560000  22.4750000 -16.6140000  -6.5490000  21.6220000
 -16.2400000  -6.8050000  23.5540000 -15.9000000  -6.3120000  24.7090000
 -15.6290000  -5.3410000  24.7770000 -15.7920000  -6.9120000  25.5140000
 -16.4190000  -8.0930000  23.4890000 -16.6900000  -8.5280000  22.6180000
 -16.3130000  -8.6680000  24.3120000 -17.7840000  -3.0370000  18.3960000
 -16.8470000  -3.2310000  17.6240000 -18.9910000  -3.5690000  18.1960000
 -19.7050000  -3.3750000  18.8850000 -19.3060000  -4.4570000  17.0550000
 -18.5920000  -5.2800000  17.0800000 -20.7090000  -5.0860000  17.2070000
 -20.7500000  -5.5650000  18.1860000 -21.8600000  -4.0740000  17.1340000
 -21.9320000  -3.6380000  16.1370000 -22.8000000  -4.5810000  17.3550000
 -21.7220000  -3.2810000  17.8690000 -20.9560000  -6.1700000  16.1530000
 -20.1590000  -6.9120000  16.1930000 -21.9060000  -6.6650000  16.3530000
 -20.9900000  -5.7360000  15.1530000 -19.1040000  -3.7510000  15.7080000
 -18.5310000  -4.3320000  14.7860000 -19.4840000  -2.4710000  15.6120000
 -19.9130000  -2.0270000  16.4110000 -19.2760000  -1.6770000  14.4000000
 -19.6430000  -2.2680000  13.5610000 -20.1180000  -0.3940000  14.4480000
 -21.1190000  -0.6430000  14.8000000 -19.6760000   0.2980000  15.1660000
 -20.2660000   0.2880000  13.0980000 -19.7430000   1.5770000  12.8790000
 -19.2530000   2.1100000  13.6810000 -19.8740000   2.1910000  11.6220000
 -19.4700000   3.1800000  11.4620000 -20.5370000   1.5270000  10.5770000
 -20.6370000   2.0020000   9.6130000 -21.0780000   0.2480000  10.7940000
 -21.5960000  -0.2600000   9.9940000 -20.9460000  -0.3690000  12.0510000
 -21.3690000  -1.3490000  12.2110000 -17.7860000  -1.4080000  14.1300000
 -17.3580000  -1.4790000  12.9810000 -16.9680000  -1.2020000  15.1740000
 -17.3630000  -1.1440000  16.1020000 -15.5080000  -1.1640000  15.0150000
 -15.2580000  -0.3800000  14.3010000 -14.8010000  -0.8420000  16.3340000
 -15.2330000   0.0430000  16.8010000 -14.9230000  -1.6790000  17.0210000
 -13.0330000  -0.5510000  16.0800000 -14.9530000  -2.4830000  14.4620000
 -14.1460000  -2.4850000  13.5340000 -15.3910000  -3.6160000  15.0240000
 -16.0350000  -3.5460000  15.7990000 -14.8820000  -4.9390000  14.6590000
 -13.8020000  -4.9270000  14.8020000 -15.5010000  -5.9690000  15.6260000
 -15.4840000  -5.5740000  16.6420000 -16.5410000  -6.1460000  15.3520000
 -14.7550000  -7.2930000  15.6630000 -13.5430000  -7.3610000  15.5140000
 -15.4430000  -8.3820000  15.9100000 -14.9520000  -9.2620000  15.9630000
 -16.4400000  -8.3360000  16.0670000 -15.1390000  -5.2680000  13.1740000
 -14.2210000  -5.6860000  12.4650000 -16.3530000  -5.0010000  12.6700000
 -17.0760000  -4.6730000  13.2940000 -16.6650000  -5.1690000  11.2400000
 -16.2070000  -6.1080000  10.9290000 -18.1770000  -5.3520000  10.9680000
 -18.2810000  -5.6560000   9.9270000 -18.7260000  -6.5140000  11.8140000
 -18.7400000  -6.2520000  12.8720000 -19.7440000  -6.7470000  11.5000000
 -18.1120000  -7.4030000  11.6720000 -19.0330000  -4.0850000  11.1790000
 -20.0220000  -4.3700000  11.5400000 -18.5750000  -3.4550000  11.9420000
 -19.2440000  -3.2720000   9.8960000 -19.7600000  -3.8820000   9.1540000
 -19.8560000  -2.3980000  10.1190000 -18.2920000  -2.9360000   9.4840000
 -16.0050000  -4.0940000  10.3610000 -15.5270000  -4.4250000   9.2790000
 -15.8910000  -2.8380000  10.8140000 -16.3210000  -2.5850000  11.6920000
 -15.1220000  -1.8050000  10.1040000 -15.5500000  -1.6780000   9.1100000
 -15.2370000  -0.4550000  10.8270000 -16.2400000  -0.0560000  10.6770000
 -15.1050000  -0.6190000  11.8960000 -14.2300000   0.5780000  10.4210000
 -14.3200000   1.4030000   9.3530000 -15.1560000   1.4360000   8.6700000
 -13.1810000   2.1850000   9.2730000 -13.0490000   2.9020000   8.5740000
 -12.2820000   1.8750000  10.2730000 -11.0010000   2.3450000  10.5980000
 -10.5150000   3.0860000   9.9810000 -10.3460000   1.8320000  11.7310000
  -9.3620000   2.1880000  11.9950000 -10.9760000   0.8530000  12.5200000
 -10.4730000   0.4650000  13.3940000 -12.2530000   0.3720000  12.1750000
 -12.7240000  -0.3810000  12.7890000 -12.9370000   0.8650000  11.0400000
 -13.6570000  -2.2200000   9.8950000 -13.1640000  -2.1570000   8.7700000
 -12.9810000  -2.7150000  10.9360000 -13.4310000  -2.7150000  11.8400000
 -11.6180000  -3.2370000  10.8490000 -10.9750000  -2.4450000  10.4650000
 -11.1350000  -3.5960000  12.2600000 -11.7590000  -4.3820000  12.6840000
 -10.1040000  -3.9450000  12.2140000 -11.1810000  -2.7160000  12.9010000
 -11.5030000  -4.4350000   9.8820000 -10.5580000  -4.5130000   9.0950000
 -12.4720000  -5.3580000   9.9010000 -13.1960000  -5.2900000  10.6020000
 -12.5490000  -6.4390000   8.9200000 -11.6210000  -7.0080000   8.9720000
 -13.6930000  -7.3850000   9.3020000 -14.6540000  -6.8750000   9.2330000
 -13.7010000  -8.2410000   8.6270000 -13.5460000  -7.7460000  10.3200000
 -12.6760000  -5.9130000   7.4730000 -11.9420000  -6.3670000   6.5910000
 -13.5730000  -4.9560000   7.2090000 -14.1680000  -4.6400000   7.9610000
 -13.7650000  -4.3640000   5.8700000 -13.8550000  -5.1790000   5.1530000
 -15.0760000  -3.5550000   5.7910000 -15.0810000  -2.7980000   6.5740000
 -15.2660000  -2.8640000   4.4350000 -15.2430000  -3.5990000   3.6300000
 -16.2210000  -2.3390000   4.4150000 -14.4770000  -2.1310000   4.2640000
 -16.2940000  -4.4740000   5.9700000 -16.2440000  -5.0040000   6.9210000
 -17.2080000  -3.8800000   5.9580000 -16.3340000  -5.2060000   5.1640000
 -12.5540000  -3.5320000   5.4220000 -12.1790000  -3.6030000   4.2550000
 -11.8910000  -2.8070000   6.3280000 -12.2760000  -2.7440000   7.2590000
 -10.5920000  -2.1630000   6.0890000 -10.7270000  -1.3670000   5.3570000
 -10.1040000  -1.5140000   7.3960000 -10.8530000  -0.8000000   7.7360000
 -10.0160000  -2.2780000   8.1680000  -8.7410000  -0.8120000   7.2660000
  -7.7130000  -1.5060000   7.0870000  -8.7010000   0.4350000   7.3960000
  -9.5740000  -3.1510000   5.4870000  -9.1140000  -2.9480000   4.3570000
  -9.3060000  -4.2660000   6.1840000  -9.7170000  -4.3570000   7.1020000
  -8.5020000  -5.3880000   5.6670000  -7.4870000  -5.0240000   5.5060000
  -8.4200000  -6.5440000   6.6870000  -9.4250000  -6.8250000   7.0010000
  -7.7430000  -7.7920000   6.1050000  -6.7570000  -7.5390000   5.7150000
  -7.6320000  -8.5450000   6.8850000  -8.3480000  -8.2240000   5.3070000
  -7.6230000  -6.1240000   7.9280000  -8.0860000  -5.2570000   8.4000000
  -7.6080000  -6.9390000   8.6510000  -6.6000000  -5.8720000   7.6510000
  -9.0000000  -5.8800000   4.3030000  -8.1930000  -6.0610000   3.3880000
 -10.3100000  -6.1150000   4.1550000 -10.9160000  -5.9270000   4.9410000
 -10.9170000  -6.6050000   2.9120000 -10.4870000  -7.5850000   2.7020000
 -12.4430000  -6.7620000   3.0930000 -12.6340000  -7.0690000   4.1210000
 -12.9460000  -5.8050000   2.9550000 -13.0820000  -7.8080000   2.1610000
 -12.4700000  -8.7090000   2.1600000 -14.4650000  -8.1750000   2.6920000
 -15.1080000  -7.2950000   2.6990000 -14.9090000  -8.9430000   2.0590000
 -14.3880000  -8.5690000   3.7050000 -13.2450000  -7.3200000   0.7190000
 -12.2750000  -7.1540000   0.2510000 -13.7730000  -8.0730000   0.1330000
 -13.8150000  -6.3910000   0.7000000 -10.5860000  -5.6950000   1.7260000
  -9.9750000  -6.1550000   0.7670000 -10.9550000  -4.4150000   1.7840000
 -11.4410000  -4.0870000   2.6060000 -10.7670000  -3.4840000   0.6740000
 -11.2090000  -3.9260000  -0.2190000 -11.5070000  -2.1750000   0.9600000
 -11.0820000  -1.6890000   1.8380000 -11.4000000  -1.5260000   0.0900000
 -13.2700000  -2.5030000   1.2300000 -13.6460000  -1.2460000   1.4810000
  -9.2890000  -3.2290000   0.3510000  -8.9360000  -3.1760000  -0.8260000
  -8.4100000  -3.1310000   1.3570000  -8.7380000  -3.1670000   2.3110000
  -6.9660000  -3.0420000   1.1080000  -6.7730000  -2.1920000   0.4530000
  -6.2050000  -2.8100000   2.4240000  -6.3610000  -3.6480000   3.1040000
  -5.1400000  -2.7370000   2.2050000  -6.7490000  -1.2690000   3.2200000
  -7.8200000  -1.7910000   3.8260000  -6.4500000  -4.2970000   0.3840000
  -5.7470000  -4.1870000  -0.6210000  -6.8770000  -5.4860000   0.8250000
  -7.4830000  -5.5080000   1.6330000  -6.5490000  -6.7590000   0.1680000
  -5.4630000  -6.8370000   0.1110000  -7.0620000  -7.9700000   0.9610000
  -8.1520000  -7.9790000   0.9820000  -6.5570000  -9.2790000   0.3640000
  -5.4830000  -9.2190000   0.1910000  -6.7710000 -10.1020000   1.0450000
  -7.0550000  -9.4700000  -0.5860000  -6.5740000  -7.9310000   2.2840000
  -7.1120000  -7.2970000   2.7640000  -7.0690000  -6.8050000  -1.2670000
  -6.2980000  -7.0650000  -2.1860000  -8.3530000  -6.5070000  -1.4830000
  -8.9460000  -6.3340000  -0.6840000  -8.9810000  -6.5050000  -2.8010000
  -8.8610000  -7.4960000  -3.2370000 -10.4780000  -6.2330000  -2.6380000
 -10.6400000  -5.2560000  -2.1810000 -10.9530000  -6.2530000  -3.6190000
 -10.9320000  -7.0010000  -2.0120000  -8.3300000  -5.5030000  -3.7650000
  -8.1460000  -5.8150000  -4.9400000  -7.9420000  -4.3260000  -3.2650000
  -8.1670000  -4.1190000  -2.3030000  -7.1460000  -3.3480000  -4.0050000
  -7.6880000  -3.0840000  -4.9130000  -6.9750000  -2.0710000  -3.1720000
  -7.9580000  -1.6830000  -2.9040000  -6.4300000  -2.3010000  -2.2560000
  -6.2800000  -1.0790000  -3.8890000  -6.8880000  -0.3440000  -3.9970000
  -5.8020000  -3.9560000  -4.4290000  -5.5810000  -4.1700000  -5.6210000
  -4.9330000  -4.3140000  -3.4740000  -5.1960000  -4.1610000  -2.5110000
  -3.6100000  -4.9090000  -3.7280000  -3.0130000  -4.1640000  -4.2540000
  -2.8760000  -5.2170000  -2.4050000  -3.5050000  -5.8830000  -1.8150000
  -1.5510000  -5.9350000  -2.7130000  -0.9940000  -5.4000000  -3.4820000
  -0.9350000  -6.0080000  -1.8160000  -1.7570000  -6.9490000  -3.0550000
  -2.5940000  -3.9370000  -1.5820000  -1.7410000  -3.4060000  -2.0040000
  -3.4520000  -3.2660000  -1.6240000  -2.3300000  -4.2390000  -0.1010000
  -1.3980000  -4.7920000   0.0200000  -2.2560000  -3.3020000   0.4500000
  -3.1520000  -4.8220000   0.3150000  -3.6700000  -6.1420000  -4.6480000
  -2.9320000  -6.2300000  -5.6300000  -4.5420000  -7.1110000  -4.3670000
  -5.1220000  -7.0140000  -3.5470000  -4.7360000  -8.2830000  -5.2280000
  -3.7620000  -8.7390000  -5.4020000  -5.6150000  -9.3260000  -4.5280000
  -6.5540000  -8.8640000  -4.2230000  -5.8230000 -10.1270000  -5.2370000
  -4.9550000  -9.9730000  -3.3090000  -3.9910000 -10.3830000  -3.6100000
  -4.7850000  -9.2220000  -2.5370000  -5.9590000 -11.3170000  -2.6200000
  -4.7650000 -12.0110000  -1.4480000  -4.4730000 -11.2490000  -0.7250000
  -5.2120000 -12.8530000  -0.9200000  -3.8800000 -12.3550000  -1.9840000
  -5.2990000  -7.9120000  -6.6150000  -4.9400000  -8.5480000  -7.6030000
  -6.0990000  -6.8470000  -6.7220000  -6.3870000  -6.3680000  -5.8800000
  -6.4260000  -6.1920000  -7.9910000  -7.0270000  -6.8620000  -8.6060000
  -7.0120000  -5.2960000  -7.7900000  -5.1710000  -5.7840000  -8.7720000
  -5.0310000  -6.1550000  -9.9360000  -4.2160000  -5.1020000  -8.1210000
  -4.3880000  -4.8600000  -7.1560000  -2.9040000  -4.7740000  -8.7100000
  -3.0680000  -4.1280000  -9.5730000  -1.9770000  -4.0300000  -7.7200000
  -1.5440000  -4.7540000  -7.0290000  -1.1450000  -3.6150000  -8.2900000
  -2.6020000  -2.9080000  -6.8770000  -3.4280000  -3.3050000  -6.2880000
  -1.5760000  -2.3300000  -5.9080000  -0.7490000  -1.8880000  -6.4620000
  -2.0450000  -1.5700000  -5.2830000  -1.1960000  -3.1270000  -5.2680000
  -3.1110000  -1.7710000  -7.7420000  -3.8890000  -2.1390000  -8.4110000
  -3.5130000  -0.9760000  -7.1140000  -2.2800000  -1.3820000  -8.3310000
  -2.1880000  -6.0380000  -9.2080000  -1.6460000  -6.0590000 -10.3130000
  -2.2120000  -7.1080000  -8.4070000  -2.6420000  -7.0050000  -7.4990000
  -1.6260000  -8.3910000  -8.7790000  -0.5660000  -8.2360000  -8.9820000
  -1.7400000  -9.3610000  -7.5980000  -1.2710000  -8.9200000  -6.7180000
  -2.7880000  -9.5710000  -7.3830000  -0.9130000 -10.9150000  -8.0140000
  -1.3470000 -11.6300000  -6.9720000  -2.2290000  -8.9550000 -10.0730000
  -1.4840000  -9.1970000 -11.0260000  -3.5570000  -9.0780000 -10.1730000
  -4.1380000  -8.8360000  -9.3830000  -4.1780000  -9.6340000 -11.3840000
  -3.5950000 -10.5150000 -11.6500000  -5.6110000 -10.1580000 -11.1480000
  -5.9130000 -10.6460000 -12.0750000  -5.6030000 -11.2360000 -10.0480000
  -5.3780000 -10.7930000  -9.0780000  -6.5750000 -11.7270000  -9.9880000
  -4.8550000 -11.9960000 -10.2740000  -6.6430000  -9.0550000 -10.8470000
  -6.4810000  -8.6690000  -9.8410000  -6.5110000  -8.2340000 -11.5520000
  -8.0930000  -9.5450000 -10.9750000  -8.3350000 -10.2570000 -10.1860000
  -8.7710000  -8.6940000 -10.9050000  -8.2350000 -10.0390000 -11.9360000
  -4.0430000  -8.7000000 -12.5990000  -3.8390000  -9.1940000 -13.7060000
  -4.0500000  -7.3720000 -12.4110000  -4.2500000  -7.0260000 -11.4830000
  -3.6540000  -6.3940000 -13.4430000  -4.3180000  -6.5160000 -14.2980000
  -3.8150000  -4.9390000 -12.9400000  -3.3080000  -4.8510000 -11.9790000
  -3.1850000  -3.9170000 -13.9070000  -3.6140000  -4.0250000 -14.9030000
  -3.3620000  -2.9010000 -13.5560000  -2.1050000  -4.0540000 -13.9590000
  -5.3090000  -4.6000000 -12.7500000  -5.7830000  -4.4430000 -13.7190000
  -5.8120000  -5.4360000 -12.2640000  -5.5390000  -3.3750000 -11.8620000
  -5.1760000  -2.4680000 -12.3450000  -6.6070000  -3.2680000 -11.6690000
  -5.0230000  -3.5130000 -10.9120000  -2.2340000  -6.6760000 -13.9590000
  -2.0250000  -6.7480000 -15.1680000  -1.2530000  -6.8520000 -13.0660000
  -1.4660000  -6.7400000 -12.0850000   0.1300000  -7.1620000 -13.4550000
   0.4650000  -6.3640000 -14.1190000   1.0640000  -7.1400000 -12.2380000
   2.0860000  -7.0100000 -12.5940000   0.8180000  -6.2850000 -11.6080000
   1.0040000  -8.3280000 -11.4730000   0.0910000  -8.5220000 -11.2500000
   0.2360000  -8.4710000 -14.2560000   0.9080000  -8.4950000 -15.2870000
  -0.4730000  -9.5300000 -13.8360000  -0.9840000  -9.4350000 -12.9710000
  -0.5990000 -10.8010000 -14.5690000   0.3980000 -11.2190000 -14.7040000
  -1.4300000 -11.8230000 -13.7540000  -2.3610000 -11.3430000 -13.4500000
  -1.7960000 -13.0550000 -14.6040000  -0.8910000 -13.5170000 -14.9960000
  -2.3400000 -13.7900000 -14.0110000  -2.4450000 -12.7730000 -15.4330000
  -0.6650000 -12.2530000 -12.4800000   0.1780000 -12.8850000 -12.7610000
  -0.2610000 -11.3740000 -11.9780000  -1.5360000 -12.9970000 -11.4550000
  -1.8940000 -13.9430000 -11.8610000  -0.9450000 -13.2140000 -10.5650000
  -2.3850000 -12.3770000 -11.1680000  -1.1680000 -10.5710000 -15.9780000
  -0.5380000 -10.9360000 -16.9720000  -2.3450000  -9.9460000 -16.0750000
  -2.8060000  -9.6630000 -15.2220000  -2.9880000  -9.5800000 -17.3390000
  -3.2790000 -10.4920000 -17.8610000  -4.2640000  -8.7870000 -17.0400000
  -5.0240000  -9.4800000 -16.6800000  -4.0670000  -8.0580000 -16.2540000
  -4.7950000  -8.0480000 -18.2710000  -5.6030000  -8.6370000 -19.0260000
  -4.4120000  -6.8700000 -18.4590000  -2.0550000  -8.8040000 -18.2820000
  -1.9010000  -9.1930000 -19.4430000  -1.4090000  -7.7360000 -17.7930000
  -1.6060000  -7.4600000 -16.8420000  -0.5000000  -6.9080000 -18.5970000
  -1.0050000  -6.6720000 -19.5330000  -0.1940000  -5.5780000 -17.8850000
   0.0960000  -5.7640000 -16.8500000   0.6340000  -5.0880000 -18.3960000
  -1.4210000  -4.6490000 -17.9400000  -1.7280000  -4.5390000 -18.9800000
  -2.2450000  -5.0940000 -17.3820000  -1.1330000  -3.2540000 -17.3750000
  -0.9440000  -3.3380000 -16.3040000  -0.2470000  -2.8540000 -17.8670000
  -2.2770000  -2.3480000 -17.6130000  -3.1000000  -2.7640000 -18.0250000
  -2.3350000  -1.0480000 -17.3860000  -1.3520000  -0.3860000 -16.8460000
  -0.4890000  -0.8640000 -16.6300000  -1.4260000   0.6140000 -16.7190000
  -3.3970000  -0.3690000 -17.7010000  -4.1710000  -0.8160000 -18.1700000
  -3.4450000   0.6170000 -17.4870000   0.7570000  -7.6650000 -19.0180000
   1.1690000  -7.5280000 -20.1670000   1.3220000  -8.5230000 -18.1630000
   0.9470000  -8.5990000 -17.2290000   2.3780000  -9.4510000 -18.5780000
   3.2120000  -8.8660000 -18.9650000   2.9100000 -10.2760000 -17.3940000
   3.5460000  -9.6460000 -16.7720000   2.0740000 -10.6150000 -16.7830000
   3.7000000 -11.4840000 -17.8620000   4.8470000 -11.2990000 -18.6590000
   5.2250000 -10.3040000 -18.8410000   5.4650000 -12.4060000 -19.2730000
   6.3260000 -12.2640000 -19.9090000   4.9460000 -13.7010000 -19.0730000
   5.5440000 -14.7710000 -19.6580000   5.9180000 -14.5460000 -20.5130000
   3.8190000 -13.8900000 -18.2500000   3.4170000 -14.8840000 -18.1210000
   3.1930000 -12.7810000 -17.6500000   2.3020000 -12.9250000 -17.0560000
   1.9350000 -10.3510000 -19.7410000   2.6090000 -10.3860000 -20.7730000
   0.8060000 -11.0520000 -19.6140000   0.3000000 -10.9860000 -18.7430000
   0.2680000 -11.9190000 -20.6730000   1.0230000 -12.6700000 -20.9070000
  -0.9860000 -12.6760000 -20.1820000  -1.7180000 -11.9440000 -19.8410000
  -1.6090000 -13.5020000 -21.3220000  -0.9040000 -14.2610000 -21.6620000
  -2.5180000 -13.9880000 -20.9700000  -1.8800000 -12.8710000 -22.1690000
  -0.6360000 -13.6240000 -19.0080000  -0.0680000 -14.4760000 -19.3810000
  -0.0050000 -13.1070000 -18.2850000  -1.8670000 -14.1330000 -18.2470000
  -2.4680000 -14.7860000 -18.8790000  -1.5400000 -14.7010000 -17.3760000
  -2.4720000 -13.2900000 -17.9140000   0.0240000 -11.1250000 -21.9680000
   0.4950000 -11.5190000 -23.0350000  -0.6730000  -9.9870000 -21.8800000
  -1.0390000  -9.7270000 -20.9750000  -0.9670000  -9.1010000 -23.0120000
  -1.5900000  -9.6360000 -23.7290000  -1.5320000  -8.2410000 -22.6520000
   0.2750000  -8.5850000 -23.7510000   0.2710000  -8.5130000 -24.9800000
   1.3490000  -8.2550000 -23.0230000   1.2610000  -8.2760000 -22.0170000
   2.6410000  -7.8250000 -23.5910000   2.4480000  -7.1330000 -24.4110000
   3.4660000  -7.0640000 -22.5290000   3.4500000  -7.6300000 -21.5970000
   4.9340000  -6.8600000 -22.9190000   5.0020000  -6.4020000 -23.9060000
   5.4320000  -6.2160000 -22.1940000   5.4510000  -7.8190000 -22.9220000
   2.8570000  -5.6780000 -22.2820000   1.8050000  -5.7660000 -22.0090000
   3.3800000  -5.1830000 -21.4640000   2.9360000  -5.0660000 -23.1810000
   3.4300000  -8.9960000 -24.1920000   3.9870000  -8.8670000 -25.2830000
   3.5060000 -10.1310000 -23.4890000   3.0150000 -10.1780000 -22.6080000
   4.3070000 -11.2970000 -23.9010000   5.2540000 -10.9280000 -24.2960000
   4.6520000 -12.1670000 -22.6870000   5.2270000 -13.0320000 -23.0200000
   5.2700000 -11.5870000 -22.0010000   3.4970000 -12.6120000 -22.0070000
   3.1640000 -11.8760000 -21.4880000   3.6770000 -12.1490000 -25.0150000
   4.4200000 -12.7740000 -25.7770000   2.3450000 -12.1260000 -25.1750000
   1.7980000 -11.6590000 -24.4670000   1.6140000 -12.8720000 -26.2140000
   2.3100000 -13.1620000 -27.0010000   1.0570000 -14.1730000 -25.5960000
   0.3190000 -13.9170000 -24.8360000   0.5400000 -14.7330000 -26.3760000
   2.0970000 -15.0940000 -24.9840000   2.9140000 -15.8820000 -25.8170000
   2.7950000 -15.8370000 -26.8900000   3.9040000 -16.7120000 -25.2560000
   4.5380000 -17.3070000 -25.8980000   4.0740000 -16.7580000 -23.8550000
   5.0420000 -17.5420000 -23.3100000   5.6480000 -17.8660000 -23.9810000
   3.2440000 -15.9800000 -23.0200000   3.3840000 -16.0090000 -21.9500000
   2.2570000 -15.1500000 -23.5860000   1.6400000 -14.5360000 -22.9470000
   0.5060000 -12.0370000 -26.9040000  -0.6630000 -12.4330000 -26.8700000
   0.8170000 -10.9100000 -27.5820000   2.1460000 -10.3760000 -27.8570000
   2.5400000 -10.8370000 -28.7630000   2.8470000 -10.5240000 -27.0340000
   1.9480000  -8.8810000 -28.0870000   2.7230000  -8.4650000 -28.7300000
   1.9200000  -8.3600000 -27.1300000   0.5730000  -8.8240000 -28.7440000
   0.6830000  -9.0100000 -29.8130000   0.0880000  -7.8620000 -28.5760000
  -0.2010000  -9.9690000 -28.0770000  -0.7400000  -9.5700000 -27.2170000
  -1.2190000 -10.5880000 -29.0460000  -2.4170000 -10.3200000 -28.9510000
  -0.7470000 -11.4560000 -29.9520000   0.2530000 -11.5960000 -29.9810000
  -1.5740000 -12.1350000 -30.9620000  -2.3620000 -11.4390000 -31.2510000
  -0.7600000 -12.3850000 -32.2530000  -1.3380000 -13.0390000 -32.9060000
  -0.6810000 -11.4260000 -32.7660000   0.6720000 -12.9440000 -32.1320000
   1.2930000 -12.2330000 -31.5880000   0.7360000 -14.2920000 -31.4180000
   0.0720000 -15.0030000 -31.9110000   1.7560000 -14.6740000 -31.4500000
   0.4510000 -14.1730000 -30.3730000   1.2680000 -13.1250000 -33.5270000
   1.2630000 -12.1720000 -34.0550000   2.2990000 -13.4720000 -33.4460000
   0.6870000 -13.8530000 -34.0930000  -2.3380000 -13.3780000 -30.4490000
  -3.2000000 -13.8920000 -31.1660000  -2.0800000 -13.8370000 -29.2100000
  -1.3500000 -13.3750000 -28.6860000  -2.8420000 -14.9200000 -28.5390000
  -3.5990000 -15.3060000 -29.2220000  -1.9120000 -16.0970000 -28.1860000
  -1.0740000 -15.7370000 -27.5890000  -2.4710000 -16.8210000 -27.5920000
  -1.3880000 -16.8320000 -29.4260000  -2.2330000 -17.1860000 -30.0180000
  -0.7970000 -16.1480000 -30.0340000  -0.5180000 -18.0310000 -29.0310000
   0.3020000 -17.6990000 -28.3940000  -1.1250000 -18.7260000 -28.4490000
  -0.0020000 -18.7350000 -30.2220000  -0.5800000 -19.4790000 -30.5870000
   1.1310000 -18.5140000 -30.8680000   1.9780000 -17.5920000 -30.5060000
   1.7730000 -17.0220000 -29.6970000   2.8380000 -17.4550000 -31.0160000
   1.4400000 -19.2290000 -31.9110000   0.8160000 -19.9570000 -32.2310000
   2.3030000 -19.0640000 -32.4080000  -3.6380000 -14.4630000 -27.3100000
  -4.5280000 -15.1920000 -26.8770000  -3.4190000 -13.2520000 -26.7940000
  -2.6350000 -12.7230000 -27.1470000  -4.1610000 -12.6890000 -25.6530000
  -3.8510000 -13.2430000 -24.7670000  -3.7430000 -11.2270000 -25.4100000
  -2.6900000 -11.2150000 -25.1280000  -3.8250000 -10.6560000 -26.3350000
  -4.5510000 -10.5230000 -24.3310000  -4.1870000 -10.6570000 -22.9780000
  -3.3220000 -11.2450000 -22.7090000  -4.9430000 -10.0270000 -21.9710000
  -4.6540000 -10.1280000 -20.9350000  -6.0830000  -9.2670000 -22.3130000
  -6.8190000  -8.6640000 -21.3420000  -6.3550000  -8.6940000 -20.5020000
  -6.4500000  -9.1340000 -23.6700000  -7.3190000  -8.5500000 -23.9340000
  -5.6830000  -9.7570000 -24.6760000  -5.9680000  -9.6510000 -25.7130000
  -5.6980000 -12.8610000 -25.7440000  -6.2760000 -13.3010000 -24.7500000
  -6.3650000 -12.6600000 -26.9060000  -5.8490000 -12.0400000 -28.1240000
  -5.4890000 -12.8130000 -28.8030000  -5.0570000 -11.3180000 -27.9270000
  -7.0390000 -11.3260000 -28.7510000  -6.9110000 -11.1920000 -29.8250000
  -7.2020000 -10.3700000 -28.2540000  -8.1790000 -12.2850000 -28.4270000
  -8.1740000 -13.1020000 -29.1490000  -9.1430000 -11.7780000 -28.4330000
  -7.8220000 -12.8110000 -27.0310000  -8.2920000 -12.1630000 -26.2910000
  -8.3740000 -14.2380000 -26.8340000  -9.5870000 -14.3960000 -26.6790000
  -7.5190000 -15.2740000 -26.8500000  -6.5450000 -15.0760000 -27.0300000
  -7.8990000 -16.6780000 -26.5720000  -8.9650000 -16.7170000 -26.3470000
  -7.6930000 -17.5400000 -27.8330000  -8.2370000 -17.0730000 -28.6550000
  -6.2320000 -17.7040000 -28.2580000  -5.6400000 -18.1390000 -27.4520000
  -6.1740000 -18.3550000 -29.1300000  -5.8150000 -16.7360000 -28.5350000
  -8.2160000 -18.8350000 -27.6450000  -8.1720000 -19.2860000 -28.4910000
  -7.1890000 -17.2710000 -25.3400000  -7.7160000 -18.1750000 -24.6860000
  -6.0400000 -16.7080000 -24.9390000  -5.6140000 -16.0180000 -25.5410000
  -5.3850000 -16.9950000 -23.6510000  -5.3730000 -18.0750000 -23.5030000
  -3.9190000 -16.4980000 -23.6760000  -3.9330000 -15.4510000 -23.9790000
  -3.2430000 -16.5540000 -22.2970000  -3.2980000 -17.5600000 -21.8810000
  -2.1960000 -16.2650000 -22.3870000  -3.7300000 -15.8690000 -21.6030000
  -3.0620000 -17.2670000 -24.7100000  -3.5730000 -17.2550000 -25.6730000
  -2.1180000 -16.7380000 -24.8380000  -2.7440000 -18.7340000 -24.3830000
  -3.6640000 -19.3050000 -24.2600000  -2.1760000 -19.1650000 -25.2070000
  -2.1400000 -18.8030000 -23.4790000  -6.1910000 -16.4080000 -22.4770000
  -6.3130000 -17.0590000 -21.4390000  -6.7910000 -15.2230000 -22.6550000
  -6.6510000 -14.7480000 -23.5350000  -7.6180000 -14.5200000 -21.6600000
  -7.7740000 -15.1700000 -20.7990000  -6.9240000 -13.2340000 -21.1550000
  -6.8710000 -12.5030000 -21.9620000  -7.7230000 -12.6250000 -19.9980000
  -7.7740000 -13.3270000 -19.1650000  -7.2410000 -11.7080000 -19.6610000
  -8.7320000 -12.3820000 -20.3300000  -5.4970000 -13.4890000 -20.6520000
  -4.8570000 -13.7590000 -21.4920000  -5.0930000 -12.5840000 -20.1980000
  -5.4950000 -14.2920000 -19.9150000  -8.9850000 -14.1930000 -22.2830000
  -9.0770000 -13.4100000 -23.2300000 -10.0520000 -14.8110000 -21.7610000
  -9.9130000 -15.4020000 -20.9540000 -11.3600000 -14.9040000 -22.4500000
 -11.3980000 -14.1810000 -23.2650000 -11.5120000 -16.3180000 -23.0630000
 -11.5320000 -17.0510000 -22.2560000 -12.7590000 -16.5140000 -23.9280000
 -12.8050000 -15.7450000 -24.6990000 -12.7260000 -17.4930000 -24.4060000
 -13.6620000 -16.4740000 -23.3180000 -10.4090000 -16.6050000 -23.8940000
 -10.4440000 -17.5380000 -24.1190000 -12.5200000 -14.5970000 -21.4980000
 -12.4250000 -14.8700000 -20.2990000 -13.6510000 -14.1080000 -22.0250000
 -13.6690000 -13.9230000 -23.0180000 -14.8890000 -13.8320000 -21.2700000
 -14.6250000 -13.3520000 -20.3280000 -15.7750000 -12.8420000 -22.0530000
 -16.0750000 -13.2890000 -23.0010000 -16.6710000 -12.6550000 -21.4610000
 -15.0900000 -11.4910000 -22.3350000 -14.7000000 -11.0890000 -21.4000000
 -14.2510000 -11.6430000 -23.0130000 -16.0320000 -10.4510000 -22.9550000
 -17.2380000 -10.6220000 -23.0760000 -15.5210000  -9.3190000 -23.3890000
 -16.1400000  -8.6940000 -23.8840000 -14.5210000  -9.1860000 -23.4500000
 -15.6300000 -15.1490000 -20.9350000 -16.6740000 -15.4840000 -21.4970000
 -15.0200000 -15.9030000 -20.0130000 -14.1840000 -15.4860000 -19.6290000
 -15.3100000 -17.2930000 -19.6060000 -16.3650000 -17.3920000 -19.3510000
 -14.9950000 -18.2440000 -20.7940000 -15.8230000 -18.1880000 -21.5010000
 -14.1130000 -17.8720000 -21.3140000 -14.7260000 -19.7310000 -20.4870000
 -14.5090000 -20.2340000 -21.4290000 -13.8360000 -19.8290000 -19.8650000
 -15.8790000 -20.4710000 -19.8100000 -16.1970000 -19.9210000 -18.9240000
 -16.7030000 -20.5250000 -20.5210000 -15.4460000 -21.8240000 -19.4190000
 -14.4610000 -21.9660000 -19.2410000 -16.1680000 -22.9140000 -19.2760000
 -17.4650000 -22.9260000 -19.3710000 -17.9530000 -22.0410000 -19.3880000
 -17.9830000 -23.7780000 -19.2100000 -15.5490000 -24.0230000 -19.0110000
 -14.5560000 -23.9460000 -18.8470000 -16.0340000 -24.9050000 -18.9280000
 -14.5100000 -17.5780000 -18.3290000 -15.0660000 -17.5610000 -17.2320000
 -13.1860000 -17.7290000 -18.4860000 -12.8390000 -17.7200000 -19.4350000
 -12.2210000 -18.0350000 -17.4130000 -12.7480000 -18.5270000 -16.5960000
 -11.2080000 -19.0460000 -17.9820000 -11.7620000 -19.8720000 -18.4280000
 -10.6290000 -18.5620000 -18.7680000 -10.2500000 -19.6380000 -16.9350000
  -9.5900000 -18.8590000 -16.5530000 -10.8330000 -20.0390000 -16.1060000
  -9.4000000 -20.7700000 -17.5320000  -8.7460000 -21.1580000 -16.7500000
 -10.0570000 -21.5740000 -17.8630000  -8.5420000 -20.3040000 -18.6300000
  -7.7130000 -19.7850000 -18.3770000  -8.6770000 -20.4690000 -19.9270000
  -9.5590000 -21.2550000 -20.4740000 -10.0210000 -21.9470000 -19.9020000
  -9.6070000 -21.3600000 -21.4780000  -7.8700000 -19.7950000 -20.6900000
  -7.1690000 -19.2460000 -20.2150000  -7.9560000 -19.7940000 -21.6970000
 -11.5500000 -16.7900000 -16.8170000 -11.2350000 -16.7820000 -15.6330000
 -11.3930000 -15.7090000 -17.5940000 -11.6920000 -15.7580000 -18.5580000
 -10.6990000 -14.4800000 -17.1660000  -9.6590000 -14.7180000 -16.9450000
 -10.7140000 -13.7590000 -17.9820000 -11.3070000 -13.8110000 -15.9300000
 -10.5790000 -13.3710000 -15.0420000 -12.6400000 -13.7880000 -15.8260000
 -13.1810000 -14.1630000 -16.5920000 -13.3620000 -13.2120000 -14.6800000
 -12.9350000 -12.2330000 -14.4600000 -14.8590000 -13.0230000 -15.0230000
 -15.2410000 -13.9420000 -15.4670000 -15.4020000 -12.8850000 -14.0880000
 -15.2490000 -11.8350000 -15.9320000 -16.3350000 -11.8470000 -16.0230000
 -14.8550000 -10.4870000 -15.3230000 -13.7720000 -10.3660000 -15.3120000
 -15.2920000  -9.6830000 -15.9150000 -15.2400000 -10.4180000 -14.3060000
 -14.6710000 -11.9190000 -17.3450000 -14.9220000 -12.8830000 -17.7880000
 -15.1140000 -11.1340000 -17.9580000 -13.5900000 -11.7820000 -17.3290000
 -13.1860000 -14.0340000 -13.3890000 -13.3710000 -13.5020000 -12.2990000
 -12.7740000 -15.3050000 -13.4640000 -12.5760000 -15.7060000 -14.3690000
 -12.5140000 -16.1180000 -12.2650000 -13.3950000 -16.0410000 -11.6270000
 -12.3470000 -17.6050000 -12.6060000 -11.4180000 -17.7670000 -13.1510000
 -12.2990000 -18.1660000 -11.6730000 -13.5280000 -18.1230000 -13.4390000
 -14.4490000 -17.6640000 -13.0810000 -13.3850000 -17.8160000 -14.4740000
 -13.7470000 -19.9170000 -13.4040000 -14.7500000 -20.0720000 -11.9030000
 -15.6520000 -19.4690000 -12.0120000 -15.0310000 -21.1140000 -11.7560000
 -14.1850000 -19.7220000 -11.0380000 -11.3390000 -15.5880000 -11.4290000
 -11.3430000 -15.7500000 -10.2110000 -10.3770000 -14.8840000 -12.0390000
 -10.3960000 -14.8000000 -13.0460000  -9.3830000 -14.1090000 -11.2940000
  -8.8590000 -14.7880000 -10.6210000  -8.3660000 -13.5160000 -12.2710000
  -8.8480000 -12.7360000 -12.8600000  -7.5340000 -13.0780000 -11.7190000
  -7.9820000 -14.2920000 -12.9340000 -10.0270000 -13.0210000 -10.4180000
  -9.7400000 -12.9380000  -9.2260000 -10.9440000 -12.2300000 -10.9900000
 -11.1540000 -12.3780000 -11.9670000 -11.7270000 -11.2200000 -10.2710000
 -11.0280000 -10.5230000  -9.8080000 -12.5550000 -10.4260000 -11.3050000
 -11.8360000  -9.9550000 -11.9750000 -13.1560000 -11.1030000 -11.9130000
 -13.4840000  -9.3330000 -10.7440000 -13.0220000  -8.8740000  -9.8700000
 -13.6970000  -8.2600000 -11.8150000 -14.1530000  -8.7010000 -12.7010000
 -14.3490000  -7.4740000 -11.4350000 -12.7430000  -7.8140000 -12.0950000
 -14.8710000  -9.8650000 -10.3680000 -14.8050000 -10.5800000  -9.5480000
 -15.5080000  -9.0410000 -10.0470000 -15.3320000 -10.3500000 -11.2270000
 -12.5400000 -11.8470000  -9.1240000 -12.4910000 -11.3380000  -8.0050000
 -13.2130000 -12.9840000  -9.3580000 -13.2430000 -13.3270000 -10.3080000
 -13.8630000 -13.7630000  -8.2880000 -14.6380000 -13.1460000  -7.8320000
 -14.5150000 -15.0530000  -8.8340000 -13.7350000 -15.6920000  -9.2480000
 -14.9480000 -15.5900000  -7.9900000 -15.6110000 -14.8850000  -9.9000000
 -15.2000000 -14.3860000 -10.7770000 -16.1430000 -16.2550000 -10.3250000
 -16.6460000 -16.7340000  -9.4850000 -16.8520000 -16.1370000 -11.1440000
 -15.3240000 -16.8910000 -10.6610000 -16.7930000 -14.0750000  -9.3820000
 -16.4740000 -13.0540000  -9.1730000 -17.5710000 -14.0510000 -10.1450000
 -17.1940000 -14.5260000  -8.4740000 -12.8720000 -14.1280000  -7.1690000
 -13.1390000 -13.8880000  -5.9910000 -11.7210000 -14.7000000  -7.5370000
 -11.5720000 -14.8820000  -8.5190000 -10.6960000 -15.1460000  -6.5970000
 -11.1620000 -15.8450000  -5.9010000  -9.6240000 -15.9170000  -7.3750000
 -10.1000000 -16.6490000  -8.0270000  -9.0400000 -15.2260000  -7.9830000
  -8.5430000 -16.7870000  -6.2060000  -7.7770000 -17.4010000  -7.1110000
 -10.1090000 -13.9970000  -5.7530000  -9.9250000 -14.1650000  -4.5480000
  -9.8980000 -12.8080000  -6.3380000 -10.0460000 -12.7390000  -7.3350000
  -9.5160000 -11.5890000  -5.6000000  -8.5400000 -11.7590000  -5.1460000
  -9.3930000 -10.3620000  -6.5300000 -10.2570000 -10.3110000  -7.1930000
  -9.3190000  -9.0420000  -5.7490000  -8.6050000  -9.1340000  -4.9310000
  -9.0070000  -8.2300000  -6.4060000 -10.2990000  -8.7930000  -5.3410000
  -8.1300000 -10.4750000  -7.3880000  -8.1940000 -11.3460000  -8.0390000
  -8.0180000  -9.5810000  -8.0020000  -7.2460000 -10.5850000  -6.7590000
 -10.4740000 -11.3120000  -4.4440000 -10.0360000 -11.2130000  -3.2960000
 -11.7770000 -11.2010000  -4.7140000 -12.0920000 -11.2810000  -5.6700000
 -12.7720000 -10.9630000  -3.6630000 -12.4620000 -10.0840000  -3.0980000
 -14.1330000 -10.6440000  -4.2880000 -14.4650000 -11.5000000  -4.8760000
 -14.8530000 -10.4990000  -3.4820000 -14.1650000  -9.4160000  -5.1480000
 -14.3830000  -9.3950000  -6.4820000 -14.5550000 -10.2720000  -7.0890000
 -14.4100000  -8.0910000  -6.9350000 -14.6200000  -7.8430000  -7.8910000
 -14.1930000  -7.1980000  -5.9100000 -14.1440000  -5.7980000  -5.8590000
 -14.3230000  -5.2100000  -6.7480000 -13.8950000  -5.1720000  -4.6270000
 -13.8770000  -4.0940000  -4.5600000 -13.6980000  -5.9470000  -3.4700000
 -13.5210000  -5.4590000  -2.5230000 -13.7570000  -7.3530000  -3.5320000
 -13.6250000  -7.9340000  -2.6320000 -14.0120000  -8.0160000  -4.7530000
 -12.8630000 -12.1210000  -2.6590000 -12.9220000 -11.8730000  -1.4550000
 -12.8030000 -13.3740000  -3.1230000 -12.7740000 -13.5100000  -4.1240000
 -12.8130000 -14.5640000  -2.2700000 -13.7340000 -14.5520000  -1.6870000
 -12.8380000 -15.8170000  -3.1520000 -11.9190000 -15.8900000  -3.7340000
 -12.9260000 -16.7020000  -2.5220000 -13.6920000 -15.7800000  -3.8280000
 -11.6420000 -14.5950000  -1.2680000 -11.8600000 -14.7130000  -0.0640000
 -10.3970000 -14.4380000  -1.7300000 -10.2580000 -14.3350000  -2.7250000
  -9.2270000 -14.3650000  -0.8460000  -9.2300000 -15.2390000  -0.1940000
  -7.9330000 -14.3840000  -1.6740000  -7.9620000 -13.5520000  -2.3780000
  -7.0920000 -14.2240000  -0.9990000  -7.6820000 -15.6870000  -2.4580000
  -8.5060000 -15.8730000  -3.1470000  -6.3970000 -15.5340000  -3.2680000
  -5.5460000 -15.3720000  -2.6070000  -6.2350000 -16.4390000  -3.8550000
  -6.4930000 -14.6880000  -3.9480000  -7.5250000 -16.9090000  -1.5510000
  -8.4670000 -17.1270000  -1.0480000  -7.2560000 -17.7790000  -2.1510000
  -6.7460000 -16.7310000  -0.8100000  -9.2830000 -13.1410000   0.0830000
  -8.9640000 -13.2510000   1.2670000  -9.7520000 -11.9950000  -0.4210000
  -9.9770000 -11.9660000  -1.4050000  -9.9630000 -10.7870000   0.3890000
  -9.0070000 -10.5070000   0.8320000 -10.4370000  -9.6050000  -0.4590000
 -11.4160000  -9.8120000  -0.8900000 -10.5110000  -8.7240000   0.1790000
  -9.5040000  -9.3480000  -1.4840000  -9.6040000 -10.0170000  -2.1660000
 -10.9280000 -11.0190000   1.5500000 -10.5830000 -10.7040000   2.6900000
 -12.1210000 -11.5750000   1.2990000 -12.3670000 -11.8110000   0.3480000
 -13.0740000 -11.8740000   2.3720000 -13.1250000 -10.9740000   2.9840000
 -14.5090000 -12.0440000   1.8290000 -15.2050000 -11.9390000   2.6620000
 -14.6940000 -11.1990000   1.1660000 -14.8520000 -13.3390000   1.0690000
 -13.9780000 -13.6680000   0.5060000 -15.3120000 -14.4650000   1.9990000
 -16.2080000 -14.1630000   2.5400000 -15.5340000 -15.3560000   1.4120000
 -14.5330000 -14.7180000   2.7190000 -15.9810000 -13.0810000   0.0690000
 -15.6640000 -12.3340000  -0.6580000 -16.2220000 -14.0000000  -0.4650000
 -16.8690000 -12.7220000   0.5890000 -12.5590000 -12.9810000   3.3120000
 -12.6650000 -12.8260000   4.5240000 -11.9090000 -14.0340000   2.7990000
 -11.8590000 -14.1220000   1.7950000 -11.2350000 -15.0680000   3.6160000
 -11.9960000 -15.5560000   4.2250000 -10.6050000 -16.1550000   2.7220000
 -10.0770000 -15.6750000   1.8970000  -9.6070000 -17.0640000   3.4500000
 -10.0760000 -17.5110000   4.3270000  -9.2730000 -17.8570000   2.7810000
  -8.7290000 -16.4960000   3.7580000 -11.7020000 -17.0620000   2.1500000
 -12.4830000 -16.4690000   1.6740000 -11.2690000 -17.7260000   1.4030000
 -12.1530000 -17.6570000   2.9440000 -10.2250000 -14.4740000   4.6110000
 -10.2620000 -14.8130000   5.7950000  -9.3400000 -13.5740000   4.1640000
  -9.3210000 -13.3660000   3.1760000  -8.3800000 -12.8860000   5.0480000
  -7.8940000 -13.6350000   5.6740000  -7.2720000 -12.1920000   4.2120000
  -7.7500000 -11.5770000   3.4500000  -6.3870000 -11.2800000   5.0830000
  -5.9300000 -11.8560000   5.8880000  -5.6010000 -10.8180000   4.4860000
  -6.9760000 -10.4710000   5.5150000  -6.3820000 -13.2540000   3.5180000
  -5.7340000 -13.7230000   4.2580000  -7.0080000 -14.0380000   3.0910000
  -5.5170000 -12.7040000   2.3750000  -4.8130000 -11.9570000   2.7430000
  -4.9510000 -13.5220000   1.9290000  -6.1550000 -12.2630000   1.6090000
  -9.1080000 -11.9270000   6.0120000  -8.7940000 -11.8810000   7.2020000
 -10.1050000 -11.1860000   5.5190000 -10.2940000 -11.2670000   4.5310000
 -10.9270000 -10.2390000   6.2890000 -10.2780000  -9.4510000   6.6730000
 -11.9400000  -9.5970000   5.3420000 -11.4120000  -9.0140000   4.5880000
 -12.5010000 -10.3890000   4.8460000 -12.8700000  -8.7860000   6.0220000
 -12.4600000  -7.9400000   6.2120000 -11.6680000 -10.8480000   7.4900000
 -11.6590000 -10.2510000   8.5660000 -12.3280000 -12.0020000   7.3260000
 -12.3370000 -12.4130000   6.4030000 -13.2080000 -12.6010000   8.3510000
 -13.7680000 -11.7800000   8.7980000 -14.2640000 -13.5420000   7.7230000
 -14.8990000 -13.9010000   8.5340000 -15.1940000 -12.7340000   6.7970000
 -14.6650000 -12.3900000   5.9080000 -16.0410000 -13.3470000   6.4890000
 -15.5860000 -11.8670000   7.3280000 -13.6150000 -14.7870000   7.0730000
 -12.7580000 -14.4830000   6.4720000 -13.2450000 -15.4360000   7.8660000
 -14.5380000 -15.6130000   6.1690000 -14.7910000 -15.0460000   5.2740000
 -14.0240000 -16.5260000   5.8680000 -15.4520000 -15.8780000   6.7020000
 -12.4850000 -13.2610000   9.5390000 -13.1140000 -13.4540000  10.5750000
 -11.1910000 -13.5890000   9.4410000 -10.7240000 -13.4050000   8.5640000
 -10.4180000 -14.2620000  10.5060000 -10.7110000 -15.3120000  10.5320000
  -9.3580000 -14.2240000  10.2530000 -10.5840000 -13.6920000  11.9330000
 -10.8600000 -14.4600000  12.8590000 -10.4890000 -12.3630000  12.1480000
 -10.0160000 -11.3620000  11.2110000 -10.8760000 -10.9390000  10.6910000
  -9.2970000 -11.7660000  10.4980000  -9.3780000 -10.2840000  12.0750000
  -9.3320000  -9.3230000  11.5630000  -8.3890000 -10.6100000  12.3960000
 -10.3310000 -10.2550000  13.2690000 -11.2070000  -9.6600000  13.0120000
  -9.8430000  -9.8430000  14.1520000 -10.7150000 -11.7330000  13.4510000
 -10.0380000 -12.1860000  14.1760000 -12.1600000 -11.8950000  13.9510000
 -12.3750000 -12.1280000  15.1380000 -13.1490000 -11.8200000  13.0460000
 -12.8900000 -11.6920000  12.0780000 -14.5690000 -12.0630000  13.3460000
 -14.8540000 -11.4410000  14.1950000 -15.4580000 -11.6750000  12.1430000
 -15.3180000 -12.4090000  11.3500000 -16.4970000 -11.7520000  12.4640000
 -15.2450000 -10.2740000  11.5360000 -14.2430000 -10.2100000  11.1110000
 -16.2590000 -10.0430000  10.4160000 -17.2730000 -10.0780000  10.8130000
 -16.0890000  -9.0700000   9.9560000 -16.1470000 -10.8130000   9.6530000
 -15.4160000  -9.1600000  12.5670000 -14.6230000  -9.2250000  13.3110000
 -15.3420000  -8.1890000  12.0760000 -16.3870000  -9.2420000  13.0550000
 -14.8310000 -13.5280000  13.7510000 -15.5930000 -13.7890000  14.6830000
 -14.1690000 -14.4760000  13.0770000 -13.6010000 -14.1790000  12.2960000
 -14.2090000 -15.9140000  13.3780000 -15.2510000 -16.2260000  13.4510000
 -13.5600000 -16.7120000  12.2310000 -12.6980000 -16.1670000  11.8460000
 -13.1800000 -17.6450000  12.6450000 -14.4820000 -17.0590000  11.0690000
 -15.2630000 -16.0740000  10.4320000 -15.2150000 -15.0430000  10.7510000
 -16.1190000 -16.4210000   9.3720000 -16.7130000 -15.6590000   8.8890000
 -16.1950000 -17.7530000   8.9320000 -16.8500000 -18.0170000   8.1150000
 -15.4130000 -18.7390000   9.5550000 -15.4660000 -19.7630000   9.2170000
 -14.5620000 -18.3940000  10.6210000 -13.9690000 -19.1620000  11.0950000
 -13.5580000 -16.2600000  14.7320000 -13.9550000 -17.2440000  15.3630000
 -12.5980000 -15.4520000  15.2030000 -12.3160000 -14.6770000  14.6210000
 -12.0340000 -15.5520000  16.5560000 -12.6300000 -14.9290000  17.2240000
 -12.1120000 -16.5800000  16.9100000 -10.5670000 -15.1370000  16.7160000
 -10.1030000 -15.0020000  17.8500000  -9.8210000 -14.9220000  15.6260000
 -10.2460000 -15.0420000  14.7170000  -8.3610000 -14.7340000  15.6650000
  -7.9640000 -15.2830000  16.5180000  -7.7310000 -15.3620000  14.4140000
  -7.9840000 -14.7480000  13.5500000  -6.6460000 -15.3480000  14.5240000
  -8.1580000 -16.7760000  14.1360000  -8.6170000 -17.2350000  12.9500000
  -8.7350000 -16.6350000  12.0600000  -8.9030000 -18.5830000  13.0480000
  -9.2490000 -19.1320000  12.2740000  -8.6450000 -19.0660000  14.3140000
  -8.7690000 -20.3360000  14.8980000  -9.1340000 -21.1710000  14.3180000
  -8.4150000 -20.5080000  16.2460000  -8.4970000 -21.4790000  16.7120000
  -7.9500000 -19.4120000  16.9920000  -7.6780000 -19.5480000  18.0280000
  -7.8300000 -18.1410000  16.3970000  -7.4540000 -17.3180000  16.9860000
  -8.1670000 -17.9320000  15.0390000  -7.9610000 -13.2700000  15.9060000
  -7.2830000 -12.6280000  15.0960000  -8.4240000 -12.7320000  17.0430000
  -8.9420000 -13.3470000  17.6540000  -8.2180000 -11.3450000  17.4790000
  -7.4230000 -10.9240000  16.8620000  -9.5000000 -10.5220000  17.2330000
  -9.2350000  -9.4660000  17.2830000  -9.8710000 -10.7310000  16.2300000
 -10.6280000 -10.8030000  18.2470000 -10.8290000 -11.8750000  18.2700000
 -10.2980000 -10.5140000  19.2450000 -11.9560000 -10.0830000  17.9690000
 -12.5120000 -10.6760000  17.2420000 -12.5470000 -10.0660000  18.8850000
 -11.8290000  -8.7090000  17.4330000 -12.2670000  -8.5530000  16.5370000
 -11.3720000  -7.6120000  18.0080000 -10.7670000  -7.5950000  19.1610000
 -10.5510000  -8.4550000  19.6450000 -10.4380000  -6.7260000  19.5570000
 -11.5230000  -6.4790000  17.3880000 -12.0380000  -6.4710000  16.5190000
 -11.1820000  -5.6130000  17.7800000  -7.7390000 -11.2270000  18.9310000
  -8.1250000 -12.0170000  19.7970000  -6.9740000 -10.1650000  19.1970000
  -6.6610000  -9.6090000  18.4140000  -6.6550000  -9.6910000  20.5530000
  -6.0540000 -10.4680000  21.0250000  -5.7890000  -8.4220000  20.4460000
  -5.3430000  -8.2080000  21.4170000  -4.9780000  -8.6390000  19.7510000
  -6.5710000  -7.1730000  19.9780000  -7.3330000  -7.4690000  19.2570000
  -7.0770000  -6.7270000  20.8340000  -5.7100000  -6.1090000  19.2970000
  -4.5280000  -6.2700000  19.0420000  -6.2870000  -4.9970000  18.8990000
  -5.7370000  -4.3730000  18.3250000  -7.2700000  -4.8260000  19.0550000
  -7.9240000  -9.4420000  21.4070000  -8.9670000  -9.0900000  20.8420000
  -7.8700000  -9.5740000  22.7490000  -6.7530000 -10.0840000  23.5320000
  -6.0240000  -9.2890000  23.6900000  -6.2800000 -10.9450000  23.0600000
  -7.3550000 -10.5090000  24.8680000  -6.6270000 -10.4500000  25.6780000
  -7.7580000 -11.5190000  24.7840000  -8.4970000  -9.5140000  25.0550000
  -8.0960000  -8.5830000  25.4580000  -9.2730000  -9.9100000  25.7100000
  -9.0140000  -9.3020000  23.6270000  -9.7810000 -10.0480000  23.4210000
  -9.6030000  -7.8930000  23.4310000  -8.8820000  -6.8910000  23.4490000
 -10.9220000  -7.8170000  23.2330000 -11.4580000  -8.6730000  23.2490000
 -11.6510000  -6.5660000  23.0070000 -11.0560000  -5.9700000  22.3140000
 -12.9700000  -6.8990000  22.3030000 -13.5710000  -7.5500000  22.9380000
 -13.5180000  -5.9800000  22.1000000 -12.7710000  -7.4060000  21.3590000
 -11.8820000  -5.7560000  24.3100000 -12.1120000  -6.3640000  25.3630000
 -11.8670000  -4.4050000  24.2650000 -11.4630000  -3.5750000  23.1350000
 -12.3070000  -3.4440000  22.4570000 -10.6060000  -3.9890000  22.6030000
 -11.0630000  -2.2310000  23.7370000 -11.1830000  -1.4150000  23.0250000
 -10.0360000  -2.2810000  24.0990000 -12.0200000  -2.1090000  24.9170000
 -12.9850000  -1.7550000  24.5570000 -11.6300000  -1.4430000  25.6870000
 -12.1370000  -3.5490000  25.4260000 -11.3510000  -3.7230000  26.1610000
 -13.5060000  -3.7780000  26.0870000 -14.5170000  -3.9820000  25.4100000
 -13.5460000  -3.6970000  27.4200000 -12.6740000  -3.5650000  27.9130000
 -14.7810000  -3.7400000  28.2230000 -15.3340000  -4.6450000  27.9730000
 -14.3950000  -3.8140000  29.7110000 -13.7900000  -4.7080000  29.8630000
 -13.7920000  -2.9420000  29.9640000 -15.6040000  -3.8770000  30.6570000
 -16.1320000  -2.9240000  30.6280000 -16.2820000  -4.6510000  30.2980000
 -15.2070000  -4.1820000  32.1160000 -14.1670000  -3.6740000  32.6050000
 -15.9540000  -4.9220000  32.8040000 -15.7100000  -2.5400000  27.9390000
 -16.9340000  -2.6860000  27.9100000 -15.1290000  -1.3600000  27.6970000
 -14.1190000  -1.3270000  27.7080000 -15.8390000  -0.1270000  27.3420000
 -16.8690000  -0.1930000  27.6930000 -15.1860000   1.0580000  28.0730000
 -15.1630000   0.8310000  29.1390000 -14.1550000   1.1600000  27.7330000
 -15.9080000   2.4060000  27.8800000 -16.8430000   2.5170000  27.0510000
 -15.5300000   3.3740000  28.5840000 -15.8590000   0.0710000  25.8140000
 -14.8140000   0.2360000  25.1800000 -17.0560000   0.0710000  25.2170000
 -17.8750000  -0.0530000  25.7950000 -17.2510000   0.1960000  23.7660000
 -16.6790000  -0.5930000  23.2780000 -18.7330000   0.0140000  23.4010000
 -19.3260000   0.7990000  23.8700000 -18.8120000   0.1340000  22.3210000
 -19.3040000  -1.3550000  23.8000000 -18.5650000  -2.1270000  23.5860000
 -19.4860000  -1.3610000  24.8750000 -20.6020000  -1.6940000  23.0350000
 -20.6680000  -1.4710000  21.8010000 -21.5560000  -2.2100000  23.6670000
 -16.7560000   1.5260000  23.1660000 -16.5810000   1.6120000  21.9480000
 -16.5300000   2.5590000  23.9890000 -16.6810000   2.4190000  24.9780000
 -16.0690000   3.8830000  23.5350000 -16.7220000   4.1870000  22.7170000
 -16.2500000   4.9240000  24.6560000 -17.1170000   4.6410000  25.2540000
 -15.0420000   5.0770000  25.5810000 -14.2400000   5.6120000  25.0730000
 -15.3340000   5.6370000  26.4690000 -14.6830000   4.0940000  25.8880000
 -16.5070000   6.1950000  24.1020000 -16.6530000   6.8000000  24.8330000
 -14.6350000   3.8840000  22.9690000 -14.2170000   4.8480000  22.3280000
 -13.8660000   2.8060000  23.1710000 -14.2760000   2.0260000  23.6650000
 -12.5020000   2.6280000  22.6450000 -12.2920000   3.4340000  21.9410000
 -11.4440000   2.7190000  23.7710000 -10.4780000   2.4900000  23.3210000
 -11.3530000   4.1580000  24.3080000 -12.2410000   4.4010000  24.8910000
 -10.4740000   4.2670000  24.9430000 -11.2630000   4.8630000  23.4820000
 -11.6880000   1.7000000  24.9060000 -12.5710000   1.9880000  25.4760000
 -11.8730000   0.7190000  24.4680000 -10.5040000   1.5590000  25.8680000
 -10.3390000   2.4910000  26.4080000 -10.7190000   0.7720000  26.5910000
  -9.6040000   1.2930000  25.3130000 -12.3650000   1.3240000  21.8410000
 -13.0970000   0.3540000  22.0490000 -11.4140000   1.3170000  20.9030000
 -10.8380000   2.1400000  20.8010000 -11.1470000   0.2190000  19.9680000
 -11.1790000  -0.7220000  20.5170000 -12.2460000   0.1990000  18.8930000
 -13.2260000   0.2060000  19.3690000 -12.1600000   1.1060000  18.2960000
 -12.1710000  -1.2300000  17.7830000  -9.7470000   0.3610000  19.3300000
  -9.2100000   1.4690000  19.2440000  -9.1510000  -0.7540000  18.8890000
  -9.6480000  -1.6290000  18.9780000  -7.8160000  -0.8080000  18.2750000
  -7.6090000   0.1490000  17.7970000  -6.7790000  -1.0260000  19.3940000
  -6.9200000  -0.2520000  20.1490000  -6.9580000  -1.9920000  19.8660000
  -5.3220000  -0.9750000  18.9060000  -5.1480000  -1.7660000  18.1760000
  -5.1400000  -0.0140000  18.4260000  -4.3230000  -1.1450000  20.0500000
  -3.5890000  -2.1220000  20.1320000  -4.2620000  -0.2240000  20.9900000
  -3.6080000  -0.3540000  21.7490000  -4.8540000   0.5930000  20.9470000
  -7.7450000  -1.9060000  17.1940000  -8.2900000  -2.9960000  17.3830000
  -7.0650000  -1.6250000  16.0730000  -6.6540000  -0.7060000  15.9920000
  -6.7750000  -2.5940000  14.9930000  -7.7210000  -2.8930000  14.5420000
  -5.8920000  -1.9260000  13.9050000  -5.0150000  -1.5130000  14.4030000
  -5.3700000  -2.9250000  12.8540000  -6.1920000  -3.4910000  12.4140000
  -4.8470000  -2.3890000  12.0620000  -4.6610000  -3.6180000  13.3060000
  -6.6050000  -0.7510000  13.1940000  -6.8860000   0.0020000  13.9310000
  -5.8940000  -0.2770000  12.5170000  -7.8560000  -1.1220000  12.3830000
  -8.6280000  -1.5280000  13.0360000  -8.2430000  -0.2260000  11.8980000
  -7.6110000  -1.8500000  11.6090000  -6.1120000  -3.8660000  15.5550000
  -5.2850000  -3.7920000  16.4680000  -6.4710000  -5.0390000  15.0200000
  -7.1400000  -5.0450000  14.2630000  -5.9580000  -6.3260000  15.4970000
  -6.1360000  -6.3800000  16.5710000  -6.7580000  -7.4580000  14.8290000
  -7.8240000  -7.3040000  14.9940000  -6.5710000  -7.4380000  13.7550000
  -6.4000000  -8.8310000  15.3710000  -5.9970000  -8.9940000  16.5140000
  -6.5570000  -9.8550000  14.5680000  -6.4250000 -10.7930000  14.9190000
  -6.8680000  -9.7190000  13.6170000  -4.4410000  -6.4770000  15.2520000
  -3.9740000  -6.3920000  14.1150000  -3.6900000  -6.7500000  16.3200000
  -4.1340000  -6.7310000  17.2270000  -2.2270000  -6.8820000  16.3270000
  -1.8450000  -6.6790000  15.3260000  -1.6630000  -5.7850000  17.2580000
  -2.1740000  -4.8490000  17.0300000  -1.8760000  -6.0390000  18.2960000
  -0.1570000  -5.5400000  17.1090000   0.3830000  -6.3760000  17.5540000
   0.0960000  -5.4870000  16.0500000   0.2790000  -4.2350000  17.7950000
   0.9310000  -4.2880000  18.8660000   0.0030000  -3.1330000  17.2670000
  -1.7640000  -8.3140000  16.7010000  -0.5730000  -8.5510000  16.8980000
  -2.6790000  -9.2950000  16.7660000  -3.6430000  -9.0570000  16.5860000
  -2.3670000 -10.7020000  17.0840000  -1.9860000 -10.7360000  18.1050000
  -3.6720000 -11.5220000  17.0740000  -4.3130000 -11.1360000  17.8670000
  -4.1890000 -11.3890000  16.1240000  -3.4270000 -13.0240000  17.2940000
  -2.9870000 -13.4510000  16.3930000  -2.7080000 -13.1480000  18.1040000
  -4.7170000 -13.7840000  17.6660000  -5.3720000 -13.4160000  18.6710000
  -5.0550000 -14.7830000  16.9850000  -1.3200000 -11.3020000  16.1080000
  -1.6140000 -11.3920000  14.9130000  -0.1340000 -11.7620000  16.5720000
   0.3140000 -11.7500000  17.9630000  -0.0790000 -12.6280000  18.4750000
   0.0180000 -10.8410000  18.4850000   1.8390000 -11.8130000  17.9260000
   2.2430000 -12.3320000  18.7960000   2.2490000 -10.8050000  17.8560000
   2.1180000 -12.5700000  16.6350000   2.0310000 -13.6410000  16.8150000
   3.1070000 -12.3220000  16.2500000   1.0060000 -12.0810000  15.7020000
   1.3410000 -11.1520000  15.2420000   0.7270000 -13.0600000  14.5560000
   1.0000000 -12.7450000  13.3950000   0.1620000 -14.2350000  14.8550000
  -0.0450000 -14.4420000  15.8220000  -0.1240000 -15.2570000  13.8420000
   0.8140000 -15.5720000  13.3830000  -0.5760000 -16.1290000  14.3140000
  -1.0590000 -14.7530000  12.7370000  -0.7450000 -14.8940000  11.5520000
  -2.1700000 -14.1070000  13.1130000  -2.3610000 -14.0120000  14.1010000
  -3.0700000 -13.4520000  12.1590000  -3.3690000 -14.1950000  11.4190000
  -4.3520000 -12.9600000  12.8460000  -4.8850000 -13.8120000  13.2680000
  -4.0920000 -12.2850000  13.6610000  -5.2590000 -12.2370000  11.8670000
  -6.0300000 -12.9800000  10.9510000  -6.0340000 -14.0590000  11.0010000
  -6.7600000 -12.3210000   9.9440000  -7.3340000 -12.8950000   9.2310000
  -6.7320000 -10.9120000   9.8600000  -7.4390000 -10.2700000   8.8960000
  -7.9110000 -10.8880000   8.3340000  -5.9710000 -10.1670000  10.7860000
  -5.9460000  -9.0900000  10.7110000  -5.2290000 -10.8310000  11.7830000
  -4.6120000 -10.2620000  12.4620000  -2.3950000 -12.3060000  11.3870000
  -2.5330000 -12.2350000  10.1670000  -1.6530000 -11.4210000  12.0640000
  -1.5880000 -11.5240000  13.0660000  -0.8960000 -10.3240000  11.4340000
  -1.6120000  -9.6630000  10.9470000  -0.1340000  -9.4820000  12.4810000
   0.3470000 -10.1410000  13.2040000   0.9450000  -8.5860000  11.8600000
   0.5230000  -8.0250000  11.0260000   1.3260000  -7.8880000  12.6060000
   1.7780000  -9.1920000  11.5050000  -1.1070000  -8.5580000  13.2200000
  -1.9140000  -9.1360000  13.6710000  -0.5700000  -8.0290000  14.0070000
  -1.5370000  -7.8310000  12.5300000   0.0240000 -10.8310000  10.3220000
  -0.0590000 -10.3330000   9.1990000   0.8840000 -11.8170000  10.6010000
   0.9060000 -12.1900000  11.5400000   1.7970000 -12.3730000   9.5980000
   2.3230000 -11.5330000   9.1450000   2.8410000 -13.2550000  10.2980000
   3.3490000 -12.6390000  11.0400000   2.3290000 -14.0640000  10.8200000
   3.9180000 -13.8630000   9.3820000   3.4620000 -14.5820000   8.7020000
   4.6760000 -12.8100000   8.5700000   5.0920000 -12.0530000   9.2350000
   5.4860000 -13.2850000   8.0160000   4.0090000 -12.3340000   7.8510000
   4.9400000 -14.5860000  10.2590000   4.4450000 -15.3620000  10.8420000
   5.7030000 -15.0460000   9.6310000   5.4190000 -13.8810000  10.9380000
   1.0600000 -13.0990000   8.4590000   1.3840000 -12.8740000   7.2940000
   0.0380000 -13.9040000   8.7730000  -0.1730000 -14.0510000   9.7500000
  -0.8570000 -14.5230000   7.7840000  -0.2850000 -15.2230000   7.1750000
  -1.9450000 -15.3080000   8.5350000  -1.4680000 -16.1400000   9.0540000
  -2.3840000 -14.6680000   9.3000000  -3.0760000 -15.8450000   7.6790000
  -2.9660000 -17.1110000   7.0760000  -2.0820000 -17.7100000   7.2370000
  -4.0090000 -17.6060000   6.2730000  -3.9190000 -18.5770000   5.8080000
  -5.1730000 -16.8400000   6.0800000  -5.9750000 -17.2210000   5.4650000
  -5.2960000 -15.5830000   6.6980000  -6.1960000 -15.0020000   6.5640000
  -4.2510000 -15.0860000   7.4980000  -4.3560000 -14.1230000   7.9750000
  -1.4730000 -13.4810000   6.8310000  -1.3730000 -13.6060000   5.6070000
  -2.0670000 -12.4310000   7.4070000  -2.0970000 -12.4110000   8.4160000
  -2.6710000 -11.3040000   6.6990000  -3.4430000 -11.6960000   6.0370000
  -3.3570000 -10.3570000   7.6910000  -4.1230000 -10.9070000   8.2380000
  -2.6250000  -9.9740000   8.4030000  -3.9570000  -9.2760000   7.0030000
  -4.4670000  -8.7620000   7.6320000  -1.6500000 -10.5770000   5.8200000
  -1.8340000 -10.5360000   4.6090000  -0.5460000 -10.0660000   6.3760000
  -0.4220000 -10.1560000   7.3750000   0.5030000  -9.3740000   5.6190000
   0.0710000  -8.4730000   5.1830000   1.6110000  -8.9500000   6.5930000
   2.0610000  -9.8270000   7.0570000   2.3810000  -8.3990000   6.0540000
   1.1970000  -8.3090000   7.3720000   1.0710000 -10.2130000   4.4560000
   1.2030000  -9.7160000   3.3330000   1.4010000 -11.4860000   4.7070000
   1.2810000 -11.8440000   5.6440000   1.9600000 -12.3860000   3.6980000
   2.8570000 -11.9010000   3.3120000   2.3990000 -13.7020000   4.3690000
   3.0720000 -13.4600000   5.1910000   1.5210000 -14.1940000   4.7880000
   3.1140000 -14.6960000   3.4350000   2.4210000 -15.0320000   2.6630000
   4.3510000 -14.0860000   2.7700000   4.9740000 -13.5930000   3.5160000
   4.9390000 -14.8640000   2.2820000   4.0460000 -13.3690000   2.0080000
   3.5770000 -15.9120000   4.2360000   2.7280000 -16.3600000   4.7520000
   4.0080000 -16.6540000   3.5640000   4.3240000 -15.6160000   4.9730000
   1.0140000 -12.5960000   2.5050000   1.4250000 -12.4140000   1.3590000
  -0.2540000 -12.9340000   2.7650000  -0.5300000 -13.0620000   3.7290000
  -1.2640000 -13.1360000   1.7200000  -0.8540000 -13.7820000   0.9440000
  -2.1280000 -13.6410000   2.1520000  -1.7530000 -11.8380000   1.0620000
  -1.8650000 -11.7630000  -0.1590000  -2.0470000 -10.8110000   1.8650000
  -1.9120000 -10.9370000   2.8580000  -2.6190000  -9.5300000   1.4230000
  -3.4550000  -9.7460000   0.7580000  -3.1630000  -8.7530000   2.6320000
  -3.8320000  -9.3940000   3.2060000  -2.3270000  -8.4590000   3.2670000
  -3.8620000  -7.5870000   2.2490000  -4.8020000  -7.7790000   2.2800000
  -1.6350000  -8.6490000   0.6450000  -2.0620000  -7.9230000  -0.2530000
  -0.3300000  -8.7330000   0.9480000  -0.0500000  -9.3330000   1.7110000
   0.6880000  -7.8590000   0.3620000   0.2600000  -7.3620000  -0.5090000
   1.0690000  -6.7530000   1.3470000   0.1870000  -6.1360000   1.5240000
   1.3650000  -7.1970000   2.2970000   2.1930000  -5.8750000   0.8320000
   1.9630000  -4.9900000  -0.2390000   0.9750000  -4.8960000  -0.6650000
   3.0250000  -4.2390000  -0.7720000   2.8540000  -3.5700000  -1.6030000
   4.3140000  -4.3620000  -0.2310000   5.1270000  -3.7920000  -0.6550000
   4.5460000  -5.2380000   0.8440000   5.5390000  -5.3440000   1.2540000
   3.4880000  -5.9960000   1.3710000   3.6760000  -6.6830000   2.1830000
   1.9300000  -8.5780000  -0.1710000   2.2210000  -8.4300000  -1.3550000
   2.6890000  -9.3180000   0.6440000   2.4180000  -9.4240000   1.6110000
   4.0040000  -9.8110000   0.1980000   4.5520000  -8.9480000  -0.1810000
   4.8210000 -10.3630000   1.3680000   4.2040000 -11.0440000   1.9550000
   5.6570000 -10.9390000   0.9720000   5.3900000  -9.2760000   2.2560000
   6.5010000  -8.5400000   1.8010000   6.9430000  -8.7680000   0.8420000
   7.0380000  -7.5060000   2.5880000   7.8880000  -6.9420000   2.2310000
   6.4620000  -7.2110000   3.8410000   6.9810000  -6.2120000   4.6010000
   7.7730000  -5.8430000   4.2040000   5.3560000  -7.9570000   4.3050000
   4.9310000  -7.7300000   5.2710000   4.8160000  -8.9870000   3.5100000
   3.9670000  -9.5520000   3.8640000   3.9480000 -10.8040000  -0.9760000
   4.7730000 -10.7020000  -1.8870000   2.9800000 -11.7280000  -1.0070000
   2.3560000 -11.8060000  -0.2160000   2.7320000 -12.5710000  -2.1830000
   3.6830000 -13.0390000  -2.4350000   1.7780000 -13.7260000  -1.8060000
   2.2820000 -14.3110000  -1.0360000   0.8780000 -13.3350000  -1.3320000
   1.3650000 -14.7090000  -2.9210000   0.9700000 -15.5960000  -2.4250000
   0.2480000 -14.1700000  -3.8160000   0.5870000 -13.3210000  -4.4100000
  -0.0720000 -14.9550000  -4.5010000  -0.6070000 -13.8740000  -3.2080000
   2.5320000 -15.1640000  -3.7990000   3.3680000 -15.4800000  -3.1760000
   2.2130000 -16.0030000  -4.4180000   2.8650000 -14.3580000  -4.4530000
   2.3520000 -11.7310000  -3.4260000   3.0510000 -11.8430000  -4.4380000
   1.3360000 -10.8400000  -3.3810000   0.2360000 -10.8030000  -2.4240000
   0.5720000 -10.4020000  -1.4670000  -0.2020000 -11.7900000  -2.2800000
  -0.8230000  -9.8870000  -3.0380000  -1.4010000  -9.3660000  -2.2750000
  -1.4810000 -10.4700000  -3.6820000   0.0060000  -8.9280000  -3.8870000
   0.4430000  -8.1580000  -3.2520000  -0.5850000  -8.4700000  -4.6810000
   1.0880000  -9.8590000  -4.4360000   0.6810000 -10.3920000  -5.2950000
   2.3410000  -9.1060000  -4.9020000   2.6200000  -9.1200000  -6.0950000
   3.1250000  -8.5040000  -3.9980000   2.8320000  -8.5280000  -3.0310000
   4.3930000  -7.8320000  -4.3060000   4.1730000  -6.9700000  -4.9350000
   5.0410000  -7.3270000  -2.9980000   4.3900000  -6.5810000  -2.5420000
   5.1110000  -8.1670000  -2.3070000   6.4580000  -6.7340000  -3.1560000
   7.1010000  -7.4430000  -3.6760000   6.4490000  -5.4180000  -3.9320000
   5.7680000  -4.7100000  -3.4610000   7.4520000  -4.9920000  -3.9500000
   6.1380000  -5.6010000  -4.9610000   7.0820000  -6.4730000  -1.7870000
   7.1360000  -7.4050000  -1.2230000   8.0910000  -6.0810000  -1.9110000
   6.4820000  -5.7510000  -1.2320000   5.3440000  -8.7370000  -5.1040000
   5.8190000  -8.3300000  -6.1640000   5.6040000  -9.9590000  -4.6260000
   5.1750000 -10.2410000  -3.7570000   6.4590000 -10.9240000  -5.3150000
   7.4650000 -10.5070000  -5.3690000   6.5280000 -12.2160000  -4.4910000
   5.5420000 -12.6740000  -4.4160000   7.2090000 -12.9180000  -4.9710000
   6.8970000 -11.9970000  -3.4890000   5.9940000 -11.1840000  -6.7610000
   6.7980000 -11.0870000  -7.6910000   4.6990000 -11.4570000  -6.9630000
   4.0910000 -11.5000000  -6.1570000   4.1070000 -11.6200000  -8.3000000
   4.6680000 -12.3980000  -8.8170000   2.6340000 -12.0830000  -8.2240000
   2.0760000 -11.3680000  -7.6190000   2.0120000 -12.1110000  -9.6350000
   2.5970000 -12.7460000 -10.3000000   0.9900000 -12.4900000  -9.5950000
   1.9550000 -11.1060000 -10.0510000   2.5460000 -13.4710000  -7.5460000
   3.0790000 -14.2080000  -8.1460000   3.0390000 -13.4250000  -6.5750000
   1.1190000 -13.9760000  -7.3020000   0.6180000 -14.2010000  -8.2430000
   1.1600000 -14.8910000  -6.7110000   0.5480000 -13.2240000  -6.7560000
   4.2710000 -10.3420000  -9.1340000   4.8670000 -10.3930000 -10.2070000
   3.7700000  -9.2040000  -8.6450000   3.3320000  -9.2510000  -7.7360000
   3.8100000  -7.8830000  -9.2920000   3.1600000  -7.9130000 -10.1660000
   3.2540000  -6.8070000  -8.3230000   3.7060000  -6.9640000  -7.3430000
   3.5900000  -5.3720000  -8.7610000   3.1860000  -5.1950000  -9.7580000
   3.1520000  -4.6500000  -8.0730000   4.6680000  -5.2070000  -8.7640000
   1.7190000  -6.9570000  -8.2020000   1.2420000  -6.5910000  -9.1100000
   1.4690000  -8.0140000  -8.1040000   1.1120000  -6.2340000  -6.9920000
   1.1580000  -5.1540000  -7.1280000   0.0680000  -6.5280000  -6.8800000
   1.6480000  -6.5110000  -6.0850000   5.2090000  -7.5460000  -9.8180000
   5.3510000  -7.2040000 -10.9940000   6.2430000  -7.6690000  -8.9760000
   6.0590000  -7.9620000  -8.0270000   7.6310000  -7.4670000  -9.3900000
   7.7180000  -6.4590000  -9.7960000   8.5880000  -7.5900000  -8.1890000
   8.4350000  -8.5580000  -7.7120000   9.6090000  -7.5660000  -8.5690000
   8.4460000  -6.4820000  -7.1260000   7.4620000  -6.5380000  -6.6600000
   9.5060000  -6.6740000  -6.0410000  10.5040000  -6.5880000  -6.4710000
   9.3850000  -5.9180000  -5.2660000   9.3910000  -7.6590000  -5.5870000
   8.6040000  -5.0800000  -7.7130000   7.7280000  -4.8310000  -8.3130000
   8.6820000  -4.3470000  -6.9100000   9.4940000  -5.0350000  -8.3400000
   8.0380000  -8.4010000 -10.5370000   8.5000000  -7.9120000 -11.5650000
   7.8420000  -9.7200000 -10.4120000   7.4260000 -10.0680000  -9.5600000
   8.1340000 -10.6790000 -11.4980000   9.1950000 -10.5900000 -11.7320000
   7.8960000 -12.1400000 -11.0630000   6.8740000 -12.2550000 -10.7020000
   8.1250000 -13.1300000 -12.2140000   9.1220000 -12.9910000 -12.6300000
   8.0260000 -14.1530000 -11.8510000   7.3880000 -12.9810000 -13.0040000
   8.8730000 -12.5300000  -9.9460000   8.7350000 -11.8900000  -9.0750000
   8.7010000 -13.5630000  -9.6440000   9.9020000 -12.4200000 -10.2900000
   7.3930000 -10.3310000 -12.7950000   8.0140000 -10.2830000 -13.8560000
   6.0870000 -10.0580000 -12.7300000   5.6420000 -10.0880000 -11.8240000
   5.2770000  -9.6600000 -13.8870000   5.3150000 -10.4530000 -14.6340000
   3.8080000  -9.4490000 -13.4930000   3.7560000  -8.6890000 -12.7140000
   3.2740000  -9.0710000 -14.3650000   3.0710000 -10.6990000 -12.9920000
   3.5030000 -11.0240000 -12.0460000   2.0430000 -10.4020000 -12.7830000
   2.9990000 -12.1330000 -14.0990000   4.5530000 -12.9710000 -13.6840000
   4.7340000 -12.9120000 -12.6110000   4.4800000 -14.0190000 -13.9730000
   5.3850000 -12.5200000 -14.2240000   5.8260000  -8.4130000 -14.5840000
   6.0890000  -8.4590000 -15.7860000   6.0470000  -7.3120000 -13.8600000
   5.8290000  -7.3100000 -12.8730000   6.5860000  -6.0950000 -14.4720000
   6.0310000  -5.9470000 -15.3980000   6.3110000  -4.8570000 -13.6080000
   6.6750000  -5.0350000 -12.5970000   6.8640000  -4.0120000 -14.0170000
   4.8380000  -4.4730000 -13.5800000   4.1610000  -4.1880000 -14.7850000
   4.6890000  -4.2130000 -15.7270000   2.7870000  -3.8800000 -14.7770000
   2.2740000  -3.6800000 -15.7060000   2.0870000  -3.8370000 -13.5530000
   0.7560000  -3.5670000 -13.5330000   0.4490000  -3.2150000 -14.3720000
   2.7670000  -4.0870000 -12.3450000   2.2210000  -4.0270000 -11.4160000
   4.1400000  -4.4090000 -12.3600000   4.6600000  -4.6130000 -11.4360000
   8.0490000  -6.2310000 -14.9180000   8.3930000  -5.7020000 -15.9730000
   8.8910000  -7.0070000 -14.2280000   8.6010000  -7.3850000 -13.3380000
  10.2120000  -7.3830000 -14.7440000  10.7700000  -6.4720000 -14.9610000
  10.9960000  -8.1720000 -13.6850000  10.3680000  -8.9570000 -13.2640000
  11.8670000  -8.6360000 -14.1460000  11.5550000  -7.0380000 -12.3760000
  12.0750000  -7.9630000 -11.5640000  10.1230000  -8.1560000 -16.0700000
  10.8510000  -7.8180000 -17.0010000   9.1970000  -9.1150000 -16.2230000
   8.6450000  -9.3840000 -15.4210000   8.9750000  -9.8080000 -17.5080000
   9.9420000 -10.1500000 -17.8780000   8.0840000 -11.0480000 -17.3340000
   7.2100000 -10.8060000 -16.7300000   7.7450000 -11.3270000 -18.3320000
   8.8110000 -12.2710000 -16.7400000   9.7510000 -12.4230000 -17.2710000
   9.0170000 -12.1100000 -15.6820000   7.9310000 -13.5160000 -16.9290000
   7.0230000 -13.4030000 -16.3360000   7.6520000 -13.5710000 -17.9810000
   8.6030000 -14.7820000 -16.5580000   9.3740000 -14.7380000 -15.9070000
   8.1710000 -15.9890000 -16.9000000   7.1810000 -16.1910000 -17.7090000
   6.6920000 -15.4360000 -18.1690000   6.8950000 -17.1530000 -17.8240000
   8.6860000 -17.0930000 -16.4580000   9.5390000 -17.1430000 -15.9190000
   8.2070000 -17.9360000 -16.7440000   8.4350000  -8.8790000 -18.6040000
   8.9510000  -8.9140000 -19.7180000   7.4680000  -8.0030000 -18.3000000
   7.0640000  -8.0650000 -17.3770000   7.0410000  -6.9000000 -19.1990000
   6.5710000  -7.3360000 -20.0810000   6.0080000  -5.9670000 -18.5240000
   6.3700000  -5.6960000 -17.5320000   5.7530000  -4.6610000 -19.2870000
   5.4650000  -4.8700000 -20.3180000   4.9540000  -4.0980000 -18.8040000
   6.6460000  -4.0360000 -19.2870000   4.6570000  -6.6690000 -18.3700000
   4.7770000  -7.5990000 -17.8160000   3.9680000  -6.0300000 -17.8180000
   4.2350000  -6.8800000 -19.3520000   8.2510000  -6.1040000 -19.6980000
   8.4240000  -5.9230000 -20.9020000   9.1080000  -5.6570000 -18.7770000
   8.8910000  -5.8120000 -17.8030000  10.3110000  -4.8840000 -19.0890000
   9.9910000  -4.0290000 -19.6840000  10.9100000  -4.3480000 -17.7760000
  10.0970000  -4.2170000 -17.0620000  11.5800000  -5.0980000 -17.3540000
  11.6340000  -3.0110000 -17.8110000  12.1230000  -2.4310000 -19.0020000
  11.9940000  -2.9150000 -19.9590000  12.8370000  -1.2190000 -18.9560000
  13.2640000  -0.8020000 -19.8560000  13.0410000  -0.5670000 -17.7240000
  13.8650000   0.5060000 -17.6560000  14.7610000   0.1620000 -17.6770000
  12.5040000  -1.1120000 -16.5410000  12.6570000  -0.6060000 -15.6000000
  11.8150000  -2.3370000 -16.5860000  11.4330000  -2.7680000 -15.6720000
  11.3240000  -5.6860000 -19.9300000  11.8330000  -5.1630000 -20.9120000
  11.5790000  -6.9660000 -19.6190000  11.1600000  -7.3330000 -18.7770000
  12.3650000  -7.8950000 -20.4680000  13.3850000  -7.5180000 -20.5340000
  12.4380000  -9.3090000 -19.8450000  11.4410000  -9.6080000 -19.5220000
  12.9650000 -10.3890000 -20.7980000  13.9370000 -10.1010000 -21.1970000
  13.0620000 -11.3350000 -20.2660000  12.2660000 -10.5440000 -21.6200000
  13.3660000  -9.3080000 -18.6240000  13.3040000 -10.2720000 -18.1180000
  14.3960000  -9.1320000 -18.9360000  13.0720000  -8.5320000 -17.9180000
  11.8500000  -7.9280000 -21.9120000  12.6280000  -7.7200000 -22.8430000
  10.5450000  -8.1510000 -22.1100000   9.9590000  -8.3150000 -21.3040000
   9.9130000  -8.1010000 -23.4420000  10.4090000  -8.8430000 -24.0680000
   8.4200000  -8.4820000 -23.3940000   7.9040000  -7.8380000 -22.6810000
   7.7510000  -8.3340000 -24.7660000   8.3120000  -8.8880000 -25.5180000
   6.7330000  -8.7220000 -24.7320000   7.7000000  -7.2840000 -25.0550000
   8.2380000  -9.9410000 -22.9600000   8.6940000 -10.1130000 -21.9850000
   7.1750000 -10.1720000 -22.8830000   8.6990000 -10.6100000 -23.6870000
  10.1480000  -6.7480000 -24.1230000  10.6620000  -6.7190000 -25.2380000
   9.8290000  -5.6320000 -23.4590000   9.4110000  -5.7270000 -22.5440000
  10.0310000  -4.2740000 -23.9780000   9.4150000  -4.1540000 -24.8700000
   9.5340000  -3.2740000 -22.9260000  10.1360000  -3.3450000 -22.0200000
   9.6100000  -2.2600000 -23.3190000   8.4920000  -3.4790000 -22.6800000
  11.4940000  -3.9880000 -24.3880000  11.7480000  -3.4750000 -25.4810000
  12.4540000  -4.3630000 -23.5320000  12.1480000  -4.7520000 -22.6510000
  13.9060000  -4.2390000 -23.7410000  14.1600000  -3.1860000 -23.8620000
  14.6060000  -4.7810000 -22.4760000  14.2400000  -4.2390000 -21.6040000
  14.3300000  -5.8270000 -22.3470000  16.1400000  -4.7090000 -22.4810000
  16.5040000  -5.4060000 -21.7260000  16.5310000  -5.0400000 -23.4430000
  16.6800000  -3.3140000 -22.1460000  16.4150000  -2.6050000 -22.9310000
  16.2650000  -2.9820000 -21.1950000  18.2020000  -3.4340000 -22.0290000
  18.4240000  -4.2910000 -21.3940000  18.6230000  -3.6310000 -23.0150000
  18.8320000  -2.2380000 -21.4340000  18.7180000  -1.4100000 -22.0010000
  18.4720000  -2.0530000 -20.5090000  19.8150000  -2.4230000 -21.2940000
  14.3630000  -4.9720000 -25.0100000  15.0780000  -4.3950000 -25.8300000
  13.9220000  -6.2260000 -25.1860000  13.3550000  -6.6170000 -24.4480000
  14.1950000  -7.0670000 -26.3690000  15.2710000  -7.0860000 -26.5440000
  13.7290000  -8.5040000 -26.0470000  14.1680000  -8.7820000 -25.0890000
  12.6480000  -8.5210000 -25.9140000  14.1430000  -9.5950000 -27.0520000
  15.2050000  -9.4870000 -27.2730000  14.0150000 -10.5600000 -26.5620000
  13.3650000  -9.6300000 -28.3790000  13.6160000  -8.7480000 -28.9680000
  13.6960000 -10.4900000 -28.9620000  11.8970000  -9.6810000 -28.1970000
  11.3900000  -8.8320000 -28.4030000  11.1550000 -10.7270000 -27.8740000
  11.6690000 -11.8990000 -27.6290000  12.6680000 -12.0250000 -27.7110000
  11.0800000 -12.6840000 -27.3930000   9.8610000 -10.6090000 -27.7940000
   9.4150000  -9.7300000 -28.0170000   9.2880000 -11.4090000 -27.5680000
  13.5480000  -6.4890000 -27.6340000  14.2070000  -6.3350000 -28.6600000
  12.2570000  -6.1740000 -27.5430000  11.8140000  -6.3350000 -26.6500000
  11.4080000  -5.6410000 -28.6170000  11.3710000  -6.3790000 -29.4180000
   9.9860000  -5.4820000 -28.0460000   9.5910000  -6.4690000 -27.8040000
  10.0530000  -4.9210000 -27.1140000   8.9700000  -4.7500000 -28.9260000
   8.0350000  -4.6730000 -28.3710000   9.3330000  -3.7340000 -29.0850000
   8.6770000  -5.4080000 -30.2880000   9.0750000  -6.5710000 -30.5380000
   8.0050000  -4.7400000 -31.1130000  11.9480000  -4.3400000 -29.2470000
  12.0770000  -4.2740000 -30.4710000  12.2530000  -3.3340000 -28.4110000
  12.0650000  -3.4950000 -27.4320000  12.9060000  -2.0470000 -28.7430000
  13.0700000  -1.5690000 -27.7770000  14.3200000  -2.2350000 -29.3330000
  14.9310000  -1.3840000 -29.0310000  14.7700000  -3.1320000 -28.9080000
  14.3530000  -2.3110000 -30.7480000  15.2520000  -2.5280000 -31.0090000
  12.0320000  -1.0500000 -29.5380000  11.0190000  -1.4170000 -30.1450000
  12.4000000   0.2430000 -29.5090000  13.2380000   0.4710000 -28.9940000
  11.6800000   1.3750000 -30.1410000  11.1830000   1.0240000 -31.0450000
  10.6400000   1.9700000 -29.1650000  11.1500000   2.2410000 -28.2400000
  10.2320000   2.8830000 -29.5980000   9.4610000   1.0560000 -28.8060000
   9.8320000   0.1130000 -28.4060000   8.8720000   1.5350000 -28.0240000
   8.5440000   0.7870000 -30.0030000   8.0400000   1.7120000 -30.2820000
   9.1300000   0.4560000 -30.8610000   7.5370000  -0.2260000 -29.6580000
   6.7810000   0.0480000 -29.0470000   7.4570000  -1.4610000 -30.1050000
   8.3630000  -2.0110000 -30.8540000   9.2840000  -1.5980000 -30.8560000
   8.2580000  -2.9870000 -31.0920000   6.4310000  -2.1730000 -29.7650000
   5.7810000  -1.7450000 -29.1210000   6.3260000  -3.1270000 -30.0810000
  12.6440000   2.4950000 -30.5590000  13.5900000   2.8070000 -29.8340000
  12.3950000   3.0950000 -31.7260000  11.5940000   2.7830000 -32.2560000
  13.1450000   4.2470000 -32.2510000  14.2080000   4.0060000 -32.2480000
  12.8430000   4.4260000 -33.2820000  12.9400000   5.5500000 -31.4620000
  12.0090000   5.6730000 -30.6610000  13.7920000   6.5460000 -31.7270000
  14.5060000   6.3790000 -32.4210000  13.7900000   7.8620000 -31.0700000
  13.1110000   7.8250000 -30.2180000  15.2130000   8.1190000 -30.5210000
  15.4890000   7.2490000 -29.9250000  15.9120000   8.1600000 -31.3560000
  15.4530000   9.3560000 -29.6280000  16.4510000   9.2420000 -29.2050000
  15.4390000  10.6940000 -30.3680000  14.4250000  10.9840000 -30.6420000
  15.8480000  11.4640000 -29.7140000  16.0600000  10.6300000 -31.2620000
  14.4680000   9.4420000 -28.4630000  14.4580000   8.4980000 -27.9190000
  14.7840000  10.2340000 -27.7830000  13.4640000   9.6680000 -28.8210000
  13.2940000   8.9570000 -32.0340000  13.8300000   9.1180000 -33.1340000
  12.2730000   9.7170000 -31.6070000  11.8990000   9.5150000 -30.6910000
  11.6570000  10.8340000 -32.3520000  12.4560000  11.4340000 -32.7880000
  10.7620000  10.2630000 -33.4770000  11.2860000   9.4680000 -34.0070000
   9.8850000   9.8080000 -33.0170000  10.2790000  11.3050000 -34.5040000
   9.2750000  11.0200000 -34.8170000  10.2090000  12.2900000 -34.0430000
  11.1420000  11.3910000 -35.7740000  11.1260000  10.4230000 -36.2760000
  10.6880000  12.1240000 -36.4410000  12.5970000  11.7950000 -35.5040000
  12.6030000  12.7400000 -34.9600000  13.0630000  11.0350000 -34.8770000
  13.3640000  11.9400000 -36.7700000  12.9610000  12.6490000 -37.3660000
  14.3210000  12.2060000 -36.5880000  13.3840000  11.0740000 -37.2900000
  10.8410000  11.7280000 -31.4010000   9.9760000  11.2240000 -30.6800000
  11.1170000  13.0350000 -31.4150000  11.8280000  13.3580000 -32.0550000
  10.5430000  14.0440000 -30.5000000   9.5620000  13.7160000 -30.1580000
  11.4600000  14.2140000 -29.2760000  12.4260000  14.5950000 -29.6070000
  11.0190000  14.9400000 -28.5930000  11.6530000  12.9890000 -28.5870000
  12.2230000  13.1590000 -27.8330000  10.3740000  15.4160000 -31.1790000
  10.9580000  15.6710000 -32.2370000   9.6100000  16.3230000 -30.5580000
   9.1320000  16.0530000 -29.7100000   9.4060000  17.6970000 -31.0400000
  10.3150000  18.2700000 -30.8570000   9.2270000  17.6810000 -32.1150000
   8.2260000  18.4280000 -30.3830000   7.2770000  17.8010000 -29.9040000
   8.2880000  19.7640000 -30.3780000   9.1030000  20.1920000 -30.7940000
   7.2750000  20.6780000 -29.8280000   6.2880000  20.2490000 -30.0020000
   7.4950000  20.7950000 -28.3020000   7.4450000  19.7850000 -27.8960000
   8.5000000  21.1700000 -28.1050000   6.4690000  21.6660000 -27.5450000
   5.5020000  21.6020000 -28.0440000   6.3000000  21.1600000 -26.1110000
   7.2500000  21.2130000 -25.5800000   5.5580000  21.7640000 -25.5890000
   5.9560000  20.1260000 -26.1230000   6.8890000  23.1350000 -27.4480000
   6.9810000  23.5820000 -28.4380000   6.1380000  23.6970000 -26.8930000
   7.8470000  23.2170000 -26.9350000   7.3420000  22.0360000 -30.5540000
   8.4370000  22.5450000 -30.8160000   6.1810000  22.6240000 -30.8750000
   5.3270000  22.1410000 -30.6360000   6.0540000  23.8910000 -31.6260000
   6.8330000  24.5710000 -31.2810000   6.2880000  23.6010000 -33.1260000
   7.2040000  23.0190000 -33.2290000   5.4630000  23.0020000 -33.5120000
   6.4260000  24.8800000 -33.9710000   5.4980000  25.4480000 -33.9130000
   7.2280000  25.4970000 -33.5660000   6.7020000  24.5850000 -35.4560000
   5.8920000  23.9640000 -35.8380000   6.6800000  25.5240000 -36.0090000
   8.0330000  23.8690000 -35.7400000   8.0740000  22.9440000 -35.1650000
   8.0500000  23.5940000 -36.7940000   9.2170000  24.7190000 -35.4360000
   9.2680000  24.9580000 -34.4560000  10.0730000  24.2380000 -35.6730000
   9.1980000  25.5770000 -35.9690000   4.6960000  24.5680000 -31.3840000
   3.6700000  23.8930000 -31.2900000   4.6920000  25.9000000 -31.2900000
   5.5790000  26.3770000 -31.3700000   3.4830000  26.7470000 -31.2040000
   2.6830000  26.2510000 -31.7540000   3.0250000  26.8780000 -29.7380000
   2.9560000  25.8820000 -29.3010000   3.9530000  27.7210000 -28.8650000
   3.9810000  28.7530000 -29.2150000   3.5930000  27.7030000 -27.8360000
   4.9600000  27.3060000 -28.8860000   1.7500000  27.4800000 -29.6730000
   1.1110000  26.7990000 -29.8950000   3.7130000  28.1150000 -31.8730000
   4.8470000  28.5980000 -31.9280000   2.6570000  28.7350000 -32.4100000
   1.7500000  28.3000000 -32.3240000   2.7250000  29.9950000 -33.1720000
   3.5190000  30.6160000 -32.7570000   3.0880000  29.6730000 -34.6340000
   4.0120000  29.0950000 -34.6470000   2.3030000  29.0500000 -35.0640000
   3.2910000  30.9150000 -35.5200000   3.5120000  32.0320000 -34.9930000
   3.2600000  30.7670000 -36.7660000   1.4040000  30.7900000 -33.0910000
   0.3470000  30.2750000 -33.4700000   1.4620000  32.0370000 -32.5960000
   2.3750000  32.3970000 -32.3590000   0.3190000  32.9550000 -32.4050000
  -0.2710000  32.9470000 -33.3220000  -0.5810000  32.4620000 -31.2490000
  -1.5160000  33.0210000 -31.2690000  -0.8300000  31.4140000 -31.4140000
   0.0540000  32.6380000 -29.8560000   1.0920000  32.3060000 -29.8720000
   0.0470000  33.6990000 -29.6040000  -0.7110000  31.8810000 -28.7570000
  -0.3920000  32.2490000 -27.7820000  -1.7740000  32.0990000 -28.8590000
  -0.5070000  30.3580000 -28.8130000  -1.2460000  29.8920000 -28.1620000
  -0.7020000  30.0120000 -29.8280000   0.8620000  29.9540000 -28.3780000
   1.0050000  30.1480000 -27.3970000   1.0170000  28.9670000 -28.5230000
   1.5810000  30.4370000 -28.8970000   0.7650000  34.4060000 -32.1700000
   1.9090000  34.6520000 -31.7750000  -0.1490000  35.3580000 -32.3590000
  -1.0550000  35.0870000 -32.7150000   0.0140000  36.7710000 -31.9740000
   0.5690000  36.8070000 -31.0360000   0.8400000  37.5270000 -33.0300000
   1.1020000  38.5110000 -32.6420000   1.7660000  36.9840000 -33.2190000
   0.1290000  37.6820000 -34.2450000   0.7120000  38.1070000 -34.8790000
  -1.3410000  37.4550000 -31.7120000  -2.4010000  36.8320000 -31.8260000
  -1.3200000  38.7350000 -31.3250000  -0.4240000  39.1870000 -31.2130000
  -2.5140000  39.5610000 -31.1020000  -3.3120000  39.2230000 -31.7650000
  -2.9930000  39.3840000 -29.6500000  -3.1900000  38.3260000 -29.4730000
  -2.1940000  39.6900000 -28.9740000  -4.2700000  40.1740000 -29.3120000
  -4.9970000  40.6200000 -30.2320000  -4.5670000  40.3300000 -28.1020000
  -2.2140000  41.0380000 -31.4230000  -1.3860000  41.6690000 -30.7580000
  -2.8620000  41.5830000 -32.4580000  -3.5380000  41.0160000 -32.9500000
  -2.6830000  42.9650000 -32.9280000  -2.6150000  43.6200000 -32.0590000
  -1.3690000  43.0780000 -33.7150000  -0.5440000  42.7320000 -33.0930000
  -1.4250000  42.4440000 -34.6000000  -1.1220000  44.4180000 -34.1070000
  -0.2780000  44.4410000 -34.5640000  -3.8640000  43.4350000 -33.7910000
  -4.4450000  42.6530000 -34.5490000  -4.2090000  44.7210000 -33.6870000
  -3.6560000  45.3010000 -33.0730000  -5.2630000  45.4070000 -34.4530000
  -5.1830000  45.0960000 -35.4950000  -6.6660000  45.0080000 -33.9480000
  -7.4040000  45.4320000 -34.6290000  -6.7630000  43.9230000 -33.9880000
  -6.9850000  45.4830000 -32.5200000  -6.1840000  45.1630000 -31.8540000
  -7.0200000  46.5730000 -32.5060000  -8.3280000  44.9370000 -31.9920000
  -9.2810000  44.7270000 -32.7830000  -8.4530000  44.7360000 -30.7580000
  -5.0730000  46.9380000 -34.4110000  -4.4360000  47.4720000 -33.4960000
  -5.6290000  47.6500000 -35.3980000  -6.1320000  47.1570000 -36.1220000
  -5.5690000  49.1150000 -35.5030000  -5.5480000  49.5320000 -34.4960000
  -4.2630000  49.5240000 -36.2100000  -3.4230000  49.1310000 -35.6370000
  -4.2360000  49.0810000 -37.2060000  -4.1020000  51.0500000 -36.3260000
  -4.8000000  51.4320000 -37.0700000  -4.3350000  51.5070000 -35.3640000
  -2.6860000  51.4660000 -36.7280000  -2.0330000  52.2640000 -36.0660000
  -2.1400000  50.9400000 -37.8060000  -1.2010000  51.2190000 -38.0530000
  -2.6540000  50.2790000 -38.3700000  -6.8110000  49.6750000 -36.2180000
  -7.1370000  49.2580000 -37.3330000  -7.4930000  50.6290000 -35.5740000
  -7.1460000  50.9220000 -34.6720000  -8.7200000  51.2980000 -36.0520000
  -8.7410000  51.2570000 -37.1410000 -10.0020000  50.6070000 -35.5290000
 -10.8560000  51.1920000 -35.8700000 -10.1720000  49.1960000 -36.1000000
  -9.3980000  48.5320000 -35.7160000 -11.1480000  48.8010000 -35.8150000
 -10.1130000  49.2290000 -37.1880000 -10.0790000  50.5220000 -33.9990000
 -10.0280000  51.5180000 -33.5610000 -11.0260000  50.0680000 -33.7070000
  -9.2630000  49.9130000 -33.6100000  -8.7260000  52.7820000 -35.6570000
  -8.1060000  53.1760000 -34.6660000  -9.4160000  53.6170000 -36.4390000
  -9.9140000  53.2340000 -37.2300000  -9.5490000  55.0700000 -36.2070000
  -9.6170000  55.2350000 -35.1320000  -8.2850000  55.8070000 -36.6980000
  -7.4110000  55.3200000 -36.2670000  -8.1300000  55.8210000 -38.2190000
  -8.9570000  56.3550000 -38.6860000  -7.1930000  56.3120000 -38.4860000
  -8.1020000  54.7990000 -38.5970000  -8.2970000  57.1500000 -36.2640000
  -7.4400000  57.5240000 -36.4790000 -10.8430000  55.6350000 -36.8200000
 -11.5320000  54.9490000 -37.5820000 -11.1930000  56.8790000 -36.4730000
 -10.5380000  57.3920000 -35.9000000 -12.4370000  57.5650000 -36.8460000
 -12.6910000  57.2920000 -37.8700000 -13.5570000  57.0580000 -35.9030000
 -13.5900000  55.9720000 -35.9940000 -13.2670000  57.2720000 -34.8740000
 -15.0070000  57.5470000 -36.1000000 -15.6360000  56.8790000 -35.5110000
 -15.2780000  58.9580000 -35.5760000 -14.8210000  59.7160000 -36.2120000
 -16.3540000  59.1320000 -35.5560000 -14.8920000  59.0540000 -34.5610000
 -15.4790000  57.4420000 -37.5490000 -15.2960000  56.4340000 -37.9200000
 -16.5490000  57.6440000 -37.5970000 -14.9600000  58.1620000 -38.1820000
 -12.2400000  59.0920000 -36.7840000 -11.6780000  59.6130000 -35.8160000
 -12.7300000  59.8070000 -37.8080000 -13.1630000  59.2950000 -38.5630000
 -12.7560000  61.2800000 -37.9000000 -12.4550000  61.7040000 -36.9420000
 -11.7370000  61.7290000 -38.9720000 -10.7510000  61.3630000 -38.6840000
 -12.0000000  61.2750000 -39.9270000 -11.6590000  63.2560000 -39.1550000
 -12.6100000  63.6220000 -39.5420000 -11.4580000  63.7280000 -38.1940000
 -10.5620000  63.6570000 -40.1460000  -9.5910000  63.3860000 -39.7290000
 -10.7130000  63.1050000 -41.0740000 -10.5990000  65.1080000 -40.4260000
 -11.2250000  65.6710000 -39.8670000  -9.8880000  65.7500000 -41.3360000
  -8.9860000  65.1470000 -42.0570000  -8.8160000  64.1630000 -41.9060000
  -8.4500000  65.6520000 -42.7480000 -10.0720000  67.0220000 -41.5450000
 -10.8150000  67.5170000 -41.0730000  -9.5230000  67.5070000 -42.2410000
 -14.1730000  61.7860000 -38.2040000 -14.9420000  61.1280000 -38.9070000
 -14.4830000  62.9830000 -37.7060000 -13.7910000  63.4360000 -37.1270000
 -15.7030000  63.7510000 -37.9920000 -16.1590000  63.3440000 -38.8940000
 -16.7380000  63.5850000 -36.8510000 -16.9250000  62.5130000 -36.7830000
 -16.2230000  64.0130000 -35.4650000 -15.9590000  65.0710000 -35.4550000
 -16.9960000  63.8360000 -34.7170000 -15.3460000  63.4260000 -35.1920000
 -18.1120000  64.2210000 -37.1730000 -18.3660000  64.0000000 -38.2100000
 -18.8570000  63.7210000 -36.5530000 -18.2830000  65.7320000 -36.9410000
 -17.5920000  66.3080000 -37.5560000 -19.3000000  66.0180000 -37.2090000
 -18.1250000  65.9750000 -35.8900000 -15.3000000  65.2000000 -38.2990000
 -14.5510000  65.8260000 -37.5450000 -15.7280000  65.7040000 -39.4600000
 -16.3500000  65.1430000 -40.0240000 -15.2770000  66.9790000 -40.0350000
 -14.8610000  67.6040000 -39.2450000 -14.1650000  66.6990000 -41.0570000
 -13.4130000  66.0570000 -40.5980000 -14.5800000  66.1690000 -41.9140000
 -13.4810000  67.9560000 -41.5320000 -12.5330000  68.6780000 -40.8030000
 -12.2410000  69.7580000 -41.5500000 -11.5420000  70.5340000 -41.2720000
 -12.9410000  69.7360000 -42.6980000 -12.8920000  70.4390000 -43.4210000
 -13.7330000  68.6090000 -42.7030000 -14.4340000  68.3080000 -43.4670000
 -16.4400000  67.7450000 -40.6790000 -17.3040000  67.1440000 -41.3260000
 -16.4710000  69.0690000 -40.4830000 -15.6920000  69.4870000 -39.9950000
 -17.5800000  69.9630000 -40.8700000 -17.9490000  69.6390000 -41.8430000
 -18.7410000  69.8230000 -39.8590000 -19.5750000  70.4430000 -40.1890000
 -19.0840000  68.7880000 -39.8640000 -18.3740000  70.2120000 -38.4160000
 -17.5420000  69.5990000 -38.0690000 -18.0830000  71.2610000 -38.3830000
 -19.5690000  69.9940000 -37.4820000 -20.4040000  70.6000000 -37.8320000
 -19.8560000  68.9430000 -37.5180000 -19.2370000  70.3660000 -36.0930000
 -18.2990000  70.6970000 -35.9180000 -20.0450000  70.3140000 -35.0490000
 -21.2790000  69.9040000 -35.1470000 -21.6290000  69.6160000 -36.0500000
 -21.8800000  69.8740000 -34.3370000 -19.6250000  70.6800000 -33.8720000
 -18.6770000  71.0070000 -33.7510000 -20.2430000  70.6430000 -33.0740000
 -17.1350000  71.4220000 -41.0440000 -16.0770000  71.8220000 -40.5530000
 -17.9570000  72.2090000 -41.7460000 -18.8000000  71.7810000 -42.1010000
 -17.7160000  73.6210000 -42.1060000 -17.1920000  74.1030000 -41.2810000
 -16.8300000  73.6520000 -43.3720000 -15.9600000  73.0140000 -43.2180000
 -17.3930000  73.2230000 -44.2010000 -16.3420000  75.0490000 -43.8020000
 -15.7960000  74.9390000 -44.7390000 -17.2050000  75.6830000 -44.0040000
 -15.4260000  75.7660000 -42.7960000 -15.1500000  76.7300000 -43.2240000
 -15.9650000  75.9520000 -41.8680000 -14.1470000  74.9670000 -42.5030000
 -14.4190000  74.0220000 -42.0320000 -13.6530000  74.7410000 -43.4480000
 -13.2210000  75.7230000 -41.6190000 -13.6460000  75.9320000 -40.7280000
 -12.3800000  75.1930000 -41.4370000 -12.9400000  76.5960000 -42.0420000
 -19.0450000  74.3570000 -42.3320000 -19.9750000  73.7920000 -42.9090000
 -19.1340000  75.6170000 -41.9020000 -18.3350000  76.0190000 -41.4330000
 -20.3260000  76.4600000 -42.0620000 -21.2160000  75.8340000 -41.9880000
 -20.3730000  77.4680000 -40.8960000 -20.3320000  76.9310000 -39.9480000
 -19.5060000  78.1250000 -40.9530000 -21.6360000  78.3200000 -40.8910000
 -22.6760000  77.9610000 -41.4310000 -21.5920000  79.4780000 -40.2720000
 -22.4240000  80.0510000 -40.2590000 -20.7400000  79.7790000 -39.8210000
 -20.3480000  77.1200000 -43.4600000 -20.1010000  78.3200000 -43.6130000
 -20.6170000  76.3060000 -44.4850000 -20.7870000  75.3330000 -44.2720000
 -20.5870000  76.6680000 -45.9050000 -21.0360000  77.6550000 -46.0200000
 -19.1200000  76.7300000 -46.3600000 -18.6460000  75.7580000 -46.2190000
 -19.0690000  76.9950000 -47.4160000 -18.5770000  77.4810000 -45.7860000
 -21.3790000  75.6500000 -46.7620000 -21.4340000  74.4670000 -46.4010000
 -21.9880000  76.0690000 -47.8910000 -22.0080000  77.4300000 -48.4130000
 -21.0210000  77.8910000 -48.3820000 -22.7200000  78.0250000 -47.8400000
 -22.4810000  77.3160000 -49.8610000 -21.6260000  77.1390000 -50.5140000
 -23.0290000  78.2040000 -50.1770000 -23.3740000  76.0780000 -49.8310000
 -23.4560000  75.6140000 -50.8140000 -24.3610000  76.3540000 -49.4600000
 -22.6830000  75.1670000 -48.8120000 -23.4430000  74.6050000 -48.2690000
 -21.7190000  74.1740000 -49.4870000 -20.5710000  74.5080000 -49.8010000
 -22.1970000  72.9490000 -49.7200000 -23.1560000  72.7580000 -49.4650000
 -21.4270000  71.8310000 -50.2770000 -20.7540000  72.2120000 -51.0450000
 -20.5840000  71.2200000 -49.1460000 -21.2370000  70.8150000 -48.3720000
 -19.9540000  70.4200000 -49.5360000 -19.9400000  71.9810000 -48.7050000
 -22.3340000  70.7710000 -50.9430000 -23.5660000  70.8360000 -50.8550000
 -21.7210000  69.7850000 -51.6050000 -20.7120000  69.7850000 -51.6250000
 -22.3990000  68.6590000 -52.2620000 -23.3030000  68.4030000 -51.7080000
 -22.6860000  68.9530000 -53.2710000 -21.5260000  67.3990000 -52.3560000
 -20.3100000  67.4500000 -52.1450000 -22.1520000  66.2660000 -52.6870000
 -23.1460000  66.3090000 -52.8570000 -21.5140000  64.9420000 -52.7220000
 -22.1240000  64.2770000 -53.3330000 -20.5330000  65.0210000 -53.1910000
 -21.3340000  64.2930000 -51.3390000 -21.4810000  64.9400000 -50.2950000
 -21.0290000  62.9930000 -51.3330000 -20.9250000  62.5260000 -52.2230000
 -20.8710000  62.1600000 -50.1270000 -20.3690000  62.7490000 -49.3590000
 -22.2560000  61.7590000 -49.5880000 -22.1360000  61.2220000 -48.6470000
 -22.8370000  62.6600000 -49.3900000 -22.9560000  60.9400000 -50.5120000
 -23.8320000  60.7760000 -50.1560000 -20.0030000  60.9140000 -50.3850000
 -19.6340000  60.6160000 -51.5270000 -19.6590000  60.1830000 -49.3190000
 -19.9790000  60.4800000 -48.4080000 -18.8450000  58.9610000 -49.3710000
 -19.3310000  58.2350000 -50.0230000 -17.8680000  59.2000000 -49.7900000
 -18.6340000  58.3090000 -47.9980000 -19.1180000  58.8070000 -46.9770000
 -17.9050000  57.1890000 -47.9770000 -17.5220000  56.8600000 -48.8510000
 -17.5880000  56.3990000 -46.7730000 -17.4070000  57.0940000 -45.9530000
 -18.7950000  55.5200000 -46.3790000 -18.6080000  55.0620000 -45.4080000
 -19.6650000  56.1670000 -46.2650000 -19.1560000  54.4150000 -47.3830000
 -20.1880000  54.1240000 -47.1910000 -19.1140000  54.8180000 -48.3950000
 -18.1460000  52.9070000 -47.2980000 -18.9660000  51.9410000 -48.5930000
 -18.9070000  52.4730000 -49.5430000 -18.4770000  50.9720000 -48.6940000
 -20.0130000  51.7890000 -48.3320000 -16.2980000  55.5740000 -46.9450000
 -15.7640000  55.4480000 -48.0520000 -15.7910000  55.0250000 -45.8360000
 -16.2800000  55.1850000 -44.9670000 -14.5450000  54.2530000 -45.7690000
 -14.3910000  53.7440000 -46.7200000 -13.3780000  55.2330000 -45.5680000
 -13.4900000  55.7610000 -44.6210000 -12.4350000  54.6880000 -45.5660000
 -13.3590000  55.9590000 -46.3810000 -14.6210000  53.1500000 -44.6870000
 -13.7790000  53.0670000 -43.7880000 -15.6550000  52.3030000 -44.7600000
 -16.3160000  52.4380000 -45.5120000 -16.0270000  51.3360000 -43.7090000
 -15.8300000  51.7850000 -42.7350000 -17.5370000  51.0540000 -43.7680000
 -17.7840000  50.5950000 -44.7250000 -17.8050000  50.3670000 -42.9660000
 -18.2710000  52.2610000 -43.6180000 -19.2060000  52.0450000 -43.6510000
 -15.2030000  50.0370000 -43.7760000 -15.7150000  48.9450000 -44.0510000
 -13.8980000  50.1690000 -43.5220000 -13.5640000  51.1050000 -43.3430000
 -12.9230000  49.0820000 -43.4340000 -12.9040000  48.5700000 -44.3960000
 -11.5400000  49.7020000 -43.2000000 -11.5280000  50.2410000 -42.2520000
 -10.7840000  48.9180000 -43.1720000 -11.3020000  50.3920000 -44.0090000
 -13.2660000  48.0380000 -42.3460000 -13.7820000  48.3760000 -41.2750000
 -12.9500000  46.7660000 -42.6270000 -12.4950000  46.5910000 -43.5120000
 -13.2310000  45.5860000 -41.7840000 -13.3970000  45.8970000 -40.7530000
 -14.4980000  44.8750000 -42.3020000 -14.3830000  44.6960000 -43.3710000
 -14.5900000  43.9090000 -41.8070000 -15.7890000  45.6700000 -42.0340000
 -15.9520000  45.7090000 -40.9570000 -15.6850000  46.6940000 -42.3950000
 -17.0230000  45.0360000 -42.6950000 -17.0840000  43.9920000 -42.3880000
 -17.9180000  45.5390000 -42.3300000 -17.0030000  45.0980000 -44.2330000
 -16.0710000  44.6670000 -44.5980000 -17.8130000  44.4710000 -44.6060000
 -17.1760000  46.4830000 -44.7540000 -16.4580000  47.1150000 -44.4300000
 -17.1500000  46.4900000 -45.7640000 -18.0680000  46.8660000 -44.4760000
 -12.0450000  44.6120000 -41.8000000 -11.4630000  44.3610000 -42.8580000
 -11.6920000  44.0690000 -40.6350000 -12.2260000  44.3220000 -39.8160000
 -10.5460000  43.1550000 -40.4240000 -10.2790000  42.6920000 -41.3740000
  -9.3080000  43.9180000 -39.9050000  -8.4970000  43.2030000 -39.7670000
  -8.8160000  45.0030000 -40.8630000  -9.5430000  45.8120000 -40.9330000
  -7.8690000  45.4060000 -40.5040000  -8.6570000  44.5730000 -41.8520000
  -9.5750000  44.5370000 -38.6650000  -8.7670000  44.9700000 -38.3810000
 -10.8890000  42.0180000 -39.4460000 -11.8510000  42.1120000 -38.6750000
 -10.0950000  40.9350000 -39.4760000  -9.3430000  40.9260000 -40.1510000
 -10.2180000  39.7470000 -38.6050000 -10.4060000  40.0990000 -37.5900000
 -11.4270000  38.8780000 -39.0200000 -11.5040000  38.0400000 -38.3270000
 -12.3370000  39.4690000 -38.9170000 -11.3620000  38.3250000 -40.4560000
 -11.2880000  39.1530000 -41.1600000 -10.4840000  37.6870000 -40.5620000
 -12.6140000  37.4940000 -40.7730000 -12.6960000  36.6960000 -40.0350000
 -13.5030000  38.1200000 -40.6930000 -12.5610000  36.8460000 -42.1650000
 -11.6270000  36.2930000 -42.2610000 -13.3770000  36.1260000 -42.2340000
 -12.6880000  37.8390000 -43.2670000 -11.9220000  38.4980000 -43.2680000
 -12.6890000  37.3770000 -44.1650000 -13.5520000  38.3570000 -43.1960000
  -8.9230000  38.9220000 -38.5570000  -8.2270000  38.7940000 -39.5670000
  -8.6040000  38.3710000 -37.3850000  -9.2220000  38.5420000 -36.6040000
  -7.4290000  37.5100000 -37.1200000  -7.0970000  37.0600000 -38.0550000
  -6.2500000  38.3180000 -36.5350000  -5.4330000  37.6270000 -36.3250000
  -5.7210000  39.3930000 -37.4830000  -6.4680000  40.1730000 -37.6330000
  -4.8190000  39.8390000 -37.0640000  -5.4720000  38.9420000 -38.4440000
  -6.6160000  38.9590000 -35.3310000  -5.8600000  39.4740000 -35.0400000
  -7.7800000  36.3640000 -36.1580000  -8.7290000  36.4640000 -35.3730000
  -7.0110000  35.2690000 -36.2130000  -6.2620000  35.2500000 -36.8910000
  -7.1580000  34.0600000 -35.3790000  -7.2010000  34.3690000 -34.3350000
  -8.4680000  33.3130000 -35.7060000  -8.5360000  32.4330000 -35.0660000
  -9.3200000  33.9470000 -35.4580000  -8.6080000  32.8640000 -37.1430000
  -8.0970000  31.6780000 -37.6810000  -8.4420000  31.6850000 -38.9800000
  -8.1990000  30.9080000 -39.6900000  -9.1390000  32.7970000 -39.2750000
  -9.5090000  33.0260000 -40.1860000  -9.2550000  33.5520000 -38.1280000
  -9.7570000  34.5020000 -38.0200000  -5.9460000  33.1200000 -35.5330000
  -5.2970000  33.0930000 -36.5830000  -5.6310000  32.3700000 -34.4690000
  -6.2160000  32.4420000 -33.6490000  -4.4610000  31.4830000 -34.3790000
  -4.1600000  31.1720000 -35.3790000  -3.2770000  32.2420000 -33.7480000
  -3.5570000  32.5670000 -32.7460000  -2.4430000  31.5480000 -33.6420000
  -2.7890000  33.4490000 -34.5270000  -1.8500000  33.2870000 -35.5640000
  -1.4810000  32.3020000 -35.8100000  -1.3860000  34.4060000 -36.2790000
  -0.6610000  34.2800000 -37.0690000  -1.8650000  35.6890000 -35.9640000
  -1.5040000  36.5500000 -36.5080000  -2.8030000  35.8550000 -34.9310000
  -3.1610000  36.8430000 -34.6810000  -3.2610000  34.7380000 -34.2110000
  -3.9770000  34.8730000 -33.4130000  -4.7990000  30.2050000 -33.5860000
  -4.5360000  30.1050000 -32.3840000  -5.4120000  29.2220000 -34.2530000
  -5.6040000  29.3480000 -35.2370000  -5.6920000  27.8970000 -33.6760000
  -6.1890000  28.0470000 -32.7180000  -6.6670000  27.1190000 -34.5710000
  -6.8510000  26.1390000 -34.1300000  -7.6120000  27.6590000 -34.6110000
  -6.1680000  26.9580000 -35.8900000  -6.8350000  26.4980000 -36.4060000
  -4.4000000  27.0980000 -33.4150000  -3.4680000  27.1060000 -34.2250000
  -4.3480000  26.4010000 -32.2720000  -5.1600000  26.4250000 -31.6710000
  -3.1680000  25.6730000 -31.7540000  -2.6080000  25.2740000 -32.6000000
  -2.2210000  26.5940000 -30.9440000  -1.4750000  25.9580000 -30.4660000
  -1.4460000  27.5800000 -31.8230000  -2.1190000  28.3320000 -32.2370000
  -0.6830000  28.0850000 -31.2320000  -0.9600000  27.0450000 -32.6390000
  -2.9260000  27.3860000 -29.8350000  -3.4550000  26.7100000 -29.1630000
  -2.1880000  27.9380000 -29.2520000  -3.6350000  28.0940000 -30.2640000
  -3.5740000  24.4780000 -30.8770000  -4.6320000  24.4930000 -30.2400000
  -2.7170000  23.4470000 -30.8270000  -1.8850000  23.5070000 -31.3970000
  -2.8580000  22.2470000 -29.9730000  -3.2700000  22.5660000 -29.0150000
  -3.8590000  21.2490000 -30.6000000  -4.0240000  20.4350000 -29.8940000
  -4.8130000  21.7570000 -30.7430000  -3.4030000  20.6460000 -31.9430000
  -3.1780000  21.4450000 -32.6500000  -2.4970000  20.0620000 -31.7830000
  -4.4540000  19.7090000 -32.5540000  -4.0050000  19.1660000 -33.3850000
  -4.7450000  18.9720000 -31.8060000  -5.6580000  20.4310000 -33.0190000
  -6.4590000  20.4120000 -32.4040000  -5.8230000  21.0570000 -34.1720000
  -4.8740000  21.1490000 -35.0610000  -3.9780000  20.7220000 -34.8720000
  -5.0300000  21.6300000 -35.9350000  -6.9660000  21.6120000 -34.4590000
  -7.7350000  21.5560000 -33.8080000  -7.0980000  22.0790000 -35.3450000
  -1.5040000  21.5840000 -29.6800000  -0.6480000  21.5160000 -30.5620000
  -1.3280000  21.0670000 -28.4610000  -2.0720000  21.1930000 -27.7900000
  -0.2140000  20.1830000 -28.0810000   0.5000000  20.1420000 -28.9030000
   0.5200000  20.7880000 -26.8630000   0.7910000  21.8150000 -27.1090000
  -0.1710000  20.8230000 -26.0200000   1.8000000  20.0470000 -26.4210000
   1.5530000  19.0350000 -26.0990000   2.8460000  19.9640000 -27.5340000
   3.0570000  20.9610000 -27.9220000   3.7650000  19.5250000 -27.1460000
   2.4860000  19.3270000 -28.3410000   2.4360000  20.7790000 -25.2380000
   1.7210000  20.8430000 -24.4180000   3.3150000  20.2340000 -24.8940000
   2.7310000  21.7850000 -25.5360000  -0.7470000  18.7520000 -27.8860000
  -0.8400000  18.2370000 -26.7680000  -1.1630000  18.1340000 -28.9980000
  -1.0290000  18.6100000 -29.8780000  -1.8370000  16.8310000 -29.0230000
  -2.7200000  16.9110000 -28.3890000  -2.3030000  16.5600000 -30.4680000
  -2.9260000  17.3950000 -30.7890000  -1.4240000  16.5340000 -31.1120000
  -3.0950000  15.2570000 -30.6800000  -2.4860000  14.4020000 -30.3860000
  -4.4040000  15.2360000 -29.8880000  -5.0090000  16.1050000 -30.1440000
  -4.9610000  14.3300000 -30.1270000  -4.2040000  15.2380000 -28.8160000
  -3.4520000  15.1290000 -32.1600000  -2.5430000  15.1430000 -32.7620000
  -3.9730000  14.1880000 -32.3350000  -4.0930000  15.9570000 -32.4650000
  -0.9300000  15.7240000 -28.4510000   0.2520000  15.6300000 -28.7950000
  -1.4770000  14.9130000 -27.5360000  -2.4650000  15.0060000 -27.3510000
  -0.7000000  14.0210000 -26.6600000   0.2620000  14.4970000 -26.4700000
  -1.4500000  13.8670000 -25.3200000  -1.9090000  14.8130000 -25.0340000
  -2.2640000  13.1540000 -25.4500000  -0.5560000  13.3780000 -24.1670000
  -1.2030000  13.1260000 -23.3270000  -0.0540000  12.4620000 -24.4770000
   0.5060000  14.3750000 -23.6640000   1.0610000  13.8690000 -22.8740000
   1.2240000  14.6100000 -24.4500000  -0.0860000  15.6620000 -23.0570000
  -1.0800000  15.4420000 -22.6680000   0.5310000  15.9450000 -22.2050000
  -0.1360000  16.8030000 -24.0200000  -0.7360000  16.6240000 -24.8120000
  -0.4950000  17.6340000 -23.5720000   0.7830000  17.0320000 -24.3740000
  -0.4320000  12.6580000 -27.3160000  -1.3710000  11.9490000 -27.6840000
   0.8470000  12.2860000 -27.4190000   1.5540000  12.9410000 -27.1160000
   1.3110000  10.9730000 -27.8830000   0.4870000  10.2610000 -27.8510000
   1.7860000  11.0700000 -29.3430000   2.6210000  11.7680000 -29.4010000
   2.1600000  10.0930000 -29.6500000   0.7180000  11.4970000 -30.3340000
   0.7240000  12.7990000 -30.8730000   1.4810000  13.5070000 -30.5710000
  -0.2540000  13.1790000 -31.8080000  -0.2430000  14.1760000 -32.2240000
  -1.2450000  12.2640000 -32.2030000  -1.9940000  12.5530000 -32.9260000
  -1.2640000  10.9700000 -31.6530000  -2.0320000  10.2690000 -31.9480000
  -0.2820000  10.5860000 -30.7230000  -0.2980000   9.5900000 -30.3060000
   2.4320000  10.4430000 -26.9680000   3.5340000  11.0000000 -26.9420000
   2.1510000   9.3630000 -26.2310000   1.2210000   8.9730000 -26.3000000
   3.0760000   8.7090000 -25.2840000   4.0980000   9.0140000 -25.5070000
   2.7580000   9.1460000 -23.8440000   1.7130000   8.9330000 -23.6220000
   3.3840000   8.5870000 -23.1480000   3.0040000  10.5320000 -23.6830000
   2.6000000  10.8070000 -22.8560000   3.0010000   7.1810000 -25.4180000
   1.9070000   6.6140000 -25.4840000   4.1640000   6.5170000 -25.5130000
   5.0110000   7.0520000 -25.3870000   4.3180000   5.1130000 -25.9650000
   3.3530000   4.6080000 -25.9300000   4.8260000   5.1340000 -27.4330000
   5.7980000   5.6280000 -27.4570000   4.9780000   4.1160000 -27.7910000
   3.9060000   5.8500000 -28.4420000   3.7850000   6.8910000 -28.1430000
   4.3970000   5.8500000 -29.4150000   2.5110000   5.2210000 -28.5960000
   2.0070000   5.2190000 -27.6300000   1.9130000   5.8440000 -29.2620000
   2.5670000   3.8370000 -29.1130000   2.4930000   3.0990000 -28.4270000
   2.6310000   3.4500000 -30.3760000   2.6830000   4.2950000 -31.3670000
   2.6680000   5.2860000 -31.1720000   2.7300000   3.9680000 -32.3210000
   2.6490000   2.1840000 -30.6770000   2.6270000   1.4860000 -29.9470000
   2.6920000   1.8900000 -31.6420000   5.2440000   4.2960000 -25.0440000
   5.7020000   4.7700000 -24.0070000   5.5790000   3.0760000 -25.4740000
   5.1250000   2.7570000 -26.3180000   6.4690000   2.1110000 -24.7900000
   6.0550000   1.8660000 -23.8110000   6.5330000   0.8200000 -25.6210000
   6.8510000   1.0870000 -26.6290000   7.2820000   0.1490000 -25.1990000
   5.1920000   0.0700000 -25.6760000   5.0570000  -0.4820000 -24.7460000
   4.3720000   0.7840000 -25.7560000   5.1210000  -0.8720000 -26.8890000
   5.2190000  -0.3860000 -28.0410000   4.9710000  -2.1040000 -26.7140000
   7.8990000   2.6400000 -24.5620000   8.6050000   2.1680000 -23.6700000
   8.3100000   3.6660000 -25.3230000   7.6780000   3.9580000 -26.0550000
   9.6070000   4.3700000 -25.2240000  10.4010000   3.6970000 -25.5480000
   9.5860000   5.6000000 -26.1550000   8.7950000   6.2740000 -25.8260000
  10.5360000   6.1260000 -26.0670000   9.3610000   5.2510000 -27.6370000
  10.2140000   4.6770000 -27.9990000   8.4580000   4.6500000 -27.7440000
   9.2020000   6.5170000 -28.4900000   8.4180000   7.1430000 -28.0640000
  10.1400000   7.0730000 -28.4890000   8.8230000   6.1330000 -29.9270000
   9.6240000   5.5270000 -30.3490000   7.9230000   5.5200000 -29.8990000
   8.5880000   7.3340000 -30.7730000   9.4110000   7.9180000 -30.8210000
   8.3460000   7.0690000 -31.7170000   7.8290000   7.8970000 -30.4150000
   9.9550000   4.8230000 -23.7950000  11.1290000   4.8600000 -23.4280000
   8.9360000   5.1660000 -22.9930000   8.0100000   5.0860000 -23.3870000
   9.0460000   5.7060000 -21.6190000  10.0220000   6.1760000 -21.4940000
   7.9700000   6.8050000 -21.4290000   7.0600000   6.5300000 -21.9610000
   7.7070000   6.8860000 -20.3740000   8.4210000   8.2120000 -21.8660000
   7.6060000   8.9000000 -21.6440000   9.2790000   8.5030000 -21.2610000
   8.7960000   8.3450000 -23.3530000   9.6450000   7.6940000 -23.5580000
   7.9600000   8.0300000 -23.9770000   9.2270000   9.7720000 -23.7310000
  10.0060000  10.0970000 -23.0410000   9.6710000   9.7390000 -24.7260000
   8.0990000  10.7460000 -23.7290000   7.6830000  10.8390000 -22.8130000
   8.4210000  11.6630000 -24.0030000   7.3760000  10.4790000 -24.3800000
   8.9910000   4.6310000 -20.5150000   8.8830000   4.9790000 -19.3420000
   9.1200000   3.3420000 -20.8530000   9.1980000   3.1240000 -21.8370000
   9.0210000   2.1990000 -19.9280000   7.9690000   2.0570000 -19.6830000
   9.5020000   0.9310000 -20.6480000  10.5290000   1.0570000 -20.9920000
   9.4580000   0.0810000 -19.9680000   8.8590000   0.7210000 -21.5030000
   9.7700000   2.3870000 -18.5920000   9.1880000   2.1330000 -17.5380000
  11.0170000   2.8760000 -18.6210000  11.4420000   3.0370000 -19.5230000
  11.8200000   3.1660000 -17.4260000  12.0440000   2.2220000 -16.9280000
  13.1430000   3.8010000 -17.8720000  12.9590000   4.7500000 -18.3770000
  13.7730000   3.9780000 -17.0010000  13.6670000   3.1300000 -18.5520000
  11.0910000   4.0560000 -16.3970000  11.0280000   3.7130000 -15.2120000
  10.4960000   5.1710000 -16.8540000  10.5450000   5.3560000 -17.8450000
   9.6270000   6.0240000 -16.0320000  10.1300000   6.2040000 -15.0810000
   9.4230000   7.3890000 -16.7170000  10.3970000   7.8630000 -16.8420000
   8.9800000   7.2480000 -17.7030000   8.5190000   8.3210000 -15.8890000
   7.5060000   7.9200000 -15.8840000   8.8810000   8.3590000 -14.8610000
   8.4870000   9.7460000 -16.4610000   9.4760000  10.1970000 -16.3760000
   8.2060000   9.7030000 -17.5140000   7.4580000  10.5870000 -15.6910000
   6.4850000  10.1070000 -15.7980000   7.7120000  10.5840000 -14.6310000
   7.3840000  11.9850000 -16.1970000   7.3390000  12.0160000 -17.2050000
   6.5560000  12.4490000 -15.8530000   8.1650000  12.5500000 -15.8950000
   8.3120000   5.3180000 -15.6990000   7.9750000   5.1910000 -14.5280000
   7.5710000   4.8500000 -16.7060000   7.9110000   4.9980000 -17.6450000
   6.2090000   4.3020000 -16.5380000   5.5830000   5.0880000 -16.1170000
   5.5950000   3.9130000 -17.8950000   6.2000000   3.1310000 -18.3550000
   4.1500000   3.4260000 -17.7800000   3.5390000   4.1810000 -17.2850000
   3.7450000   3.2320000 -18.7730000   4.1060000   2.4990000 -17.2090000
   5.5850000   5.0410000 -18.7400000   5.1900000   4.7810000 -19.5750000
   6.1530000   3.1260000 -15.5570000   5.4260000   3.1850000 -14.5660000
   6.9360000   2.0670000 -15.7940000   7.5800000   2.1090000 -16.5710000
   7.0040000   0.8960000 -14.9100000   5.9910000   0.5320000 -14.7380000
   7.8190000  -0.2320000 -15.5750000   8.8430000   0.1150000 -15.7130000
   7.8520000  -1.0810000 -14.8920000   7.2790000  -0.7200000 -16.9350000
   7.2430000   0.1130000 -17.6380000   8.2080000  -1.7870000 -17.5110000
   8.2310000  -2.6580000 -16.8560000   7.8600000  -2.0840000 -18.5000000
   9.2140000  -1.3800000 -17.6080000   5.8800000  -1.3250000 -16.8180000
   5.1620000  -0.5580000 -16.5300000   5.5720000  -1.7330000 -17.7810000
   5.8790000  -2.1200000 -16.0730000   7.5790000   1.2610000 -13.5330000
   7.0700000   0.8010000 -12.5110000   8.5900000   2.1370000 -13.5050000
   8.9610000   2.4620000 -14.3870000   9.1630000   2.7020000 -12.2830000
   9.6490000   1.9100000 -11.7120000   9.9180000   3.4380000 -12.5610000
   8.1240000   3.3900000 -11.3870000   8.0720000   3.1110000 -10.1920000
   7.2490000   4.2210000 -11.9640000   7.3820000   4.4290000 -12.9430000
   6.1120000   4.8520000 -11.2780000   6.4800000   5.3160000 -10.3620000
   5.4910000   5.9610000 -12.1650000   5.3450000   5.5460000 -13.1620000
   4.1060000   6.4170000 -11.6700000   4.1530000   6.7060000 -10.6200000
   3.7630000   7.2670000 -12.2590000   3.3750000   5.6170000 -11.7860000
   6.4320000   7.1830000 -12.3130000   7.4060000   6.8490000 -12.6680000
   6.0210000   7.8410000 -13.0780000   6.6620000   8.0190000 -11.0440000
   7.1020000   7.4080000 -10.2560000   7.3500000   8.8320000 -11.2750000
   5.7240000   8.4490000 -10.6940000   5.0800000   3.8060000 -10.8310000
   4.7400000   3.7620000  -9.6500000   4.5900000   2.9570000 -11.7440000
   4.9140000   3.0490000 -12.6960000   3.6050000   1.8960000 -11.4470000
   2.6720000   2.3820000 -11.1590000   3.3120000   1.0510000 -12.7050000
   4.2540000   0.7880000 -13.1850000   2.5490000  -0.2450000 -12.4130000
   1.6380000  -0.0220000 -11.8580000   2.2870000  -0.7410000 -13.3470000
   3.1670000  -0.9310000 -11.8330000   2.4590000   1.8610000 -13.6920000
   2.9440000   2.8080000 -13.9310000   2.3300000   1.2990000 -14.6170000
   1.4790000   2.0680000 -13.2610000   4.0150000   1.0310000 -10.2440000
   3.2400000   0.8890000  -9.2960000   5.2400000   0.4920000 -10.2500000
   5.8270000   0.6520000 -11.0570000   5.7970000  -0.2910000  -9.1340000
   5.0550000  -1.0230000  -8.8150000   7.0580000  -1.0640000  -9.5790000
   7.7550000  -0.3680000 -10.0470000   7.7810000  -1.7390000  -8.4080000
   7.0930000  -2.3850000  -7.8630000   8.6140000  -2.3330000  -8.7850000
   8.1900000  -0.9920000  -7.7270000   6.6930000  -2.1570000 -10.5930000
   6.2240000  -1.7180000 -11.4730000   7.5950000  -2.6790000 -10.9140000
   6.0070000  -2.8740000 -10.1410000   6.0930000   0.5940000  -7.9190000
   5.6790000   0.2730000  -6.8060000   6.8050000   1.7060000  -8.1120000
   7.0970000   1.9390000  -9.0510000   7.2540000   2.6030000  -7.0480000
   7.9550000   2.0720000  -6.4040000   7.7740000   3.4480000  -7.4990000
   6.1230000   3.1550000  -6.1820000   6.1990000   3.0730000  -4.9580000
   5.0580000   3.6850000  -6.7900000   5.0490000   3.7440000  -7.7980000
   3.8900000   4.1850000  -6.0590000   4.2290000   4.9190000  -5.3270000
   2.9420000   4.8970000  -7.0340000   2.6870000   4.2320000  -7.8600000
   2.0290000   5.1750000  -6.5080000   3.7420000   6.4010000  -7.6730000
   2.7290000   6.8160000  -8.4400000   3.1690000   3.0790000  -5.2700000
   2.7770000   3.3070000  -4.1260000   3.0390000   1.8730000  -5.8350000
   3.3980000   1.7410000  -6.7700000   2.5250000   0.6930000  -5.1270000
   1.5250000   0.9190000  -4.7570000   2.4010000  -0.4770000  -6.1220000
   1.4890000  -0.3440000  -6.7040000   3.2320000  -0.4380000  -6.8270000
   2.3820000  -1.8590000  -5.4980000   1.3840000  -2.2020000  -4.5700000
   0.6080000  -1.4890000  -4.3310000   1.3860000  -3.4670000  -3.9560000
   0.6280000  -3.7150000  -3.2280000   2.3780000  -4.4050000  -4.2880000
   2.3780000  -5.3790000  -3.8210000   3.3650000  -4.0720000  -5.2320000
   4.1190000  -4.7940000  -5.5080000   3.3770000  -2.7980000  -5.8260000
   4.1510000  -2.5470000  -6.5360000   3.3770000   0.3460000  -3.8900000
   2.8510000   0.2790000  -2.7770000   4.6940000   0.1930000  -4.0700000
   5.0470000   0.2590000  -5.0140000   5.6680000  -0.0170000  -2.9850000
   5.4350000  -0.9650000  -2.5010000   7.1010000  -0.1230000  -3.5500000
   7.2840000   0.7090000  -4.2290000   8.1800000  -0.0960000  -2.4610000
   7.9980000  -0.8940000  -1.7410000   9.1630000  -0.2400000  -2.9110000
   8.1840000   0.8650000  -1.9470000   7.2720000  -1.4390000  -4.3220000
   6.5320000  -1.5140000  -5.1180000   8.2650000  -1.4780000  -4.7700000
   7.1500000  -2.2870000  -3.6480000   5.5440000   1.0600000  -1.9020000
   5.3430000   0.7270000  -0.7360000   5.6100000   2.3420000  -2.2770000
   5.7710000   2.5340000  -3.2550000   5.4860000   3.4950000  -1.3780000
   6.3280000   3.4770000  -0.6860000   5.5890000   4.7740000  -2.2380000
   6.5590000   4.7490000  -2.7350000   4.8350000   4.7260000  -3.0240000
   5.4660000   6.1560000  -1.5610000   5.8180000   6.8860000  -2.2900000
   4.0310000   6.5580000  -1.2100000   3.6570000   5.9920000  -0.3570000
   4.0110000   7.6160000  -0.9530000   3.3790000   6.3990000  -2.0690000
   6.3490000   6.2950000  -0.3220000   7.3800000   6.0510000  -0.5810000
   6.3130000   7.3240000   0.0370000   6.0090000   5.6330000   0.4730000
   4.2030000   3.4420000  -0.5330000   4.2560000   3.6500000   0.6810000
   3.0560000   3.1480000  -1.1540000   3.0690000   2.9840000  -2.1500000
   1.7810000   3.0560000  -0.4430000   1.5830000   4.0100000   0.0450000
   0.6450000   2.7970000  -1.4370000   0.8740000   1.9300000  -2.0570000
  -0.2490000   2.5760000  -0.8540000   0.3390000   4.2610000  -2.4720000
   1.4760000   4.1960000  -3.1720000   1.7540000   1.9800000   0.6590000
   1.1040000   2.1910000   1.6840000   2.4360000   0.8420000   0.4670000
   2.9690000   0.7490000  -0.3860000   2.1630000  -0.3740000   1.2460000
   1.4600000  -0.1400000   2.0460000   1.4630000  -1.3870000   0.3380000
   2.1170000  -1.6000000  -0.5080000   1.3210000  -2.3180000   0.8870000
   0.1220000  -0.9680000  -0.1840000  -0.1700000  -0.7540000  -1.4840000
   0.5460000  -0.8430000  -2.2880000  -1.5090000  -0.4440000  -1.6170000
  -1.9680000  -0.2820000  -2.5020000  -2.1430000  -0.4130000  -0.3970000
  -3.4670000  -0.1500000  -0.0220000  -4.2100000   0.0850000  -0.7690000
  -3.8070000  -0.1850000   1.3400000  -4.8180000   0.0390000   1.6470000
  -2.8290000  -0.4960000   2.3010000  -3.0980000  -0.5260000   3.3470000
  -1.5010000  -0.7620000   1.9110000  -0.7600000  -0.9970000   2.6620000
  -1.1220000  -0.7310000   0.5490000   3.3700000  -1.0090000   1.9460000
   3.2300000  -1.4050000   3.1040000   4.5480000  -1.0910000   1.3130000
   4.6490000  -0.6560000   0.4070000   5.7250000  -1.7400000   1.9130000
   5.4440000  -2.7780000   2.0900000   6.9180000  -1.7560000   0.9310000
   6.6360000  -2.3090000   0.0350000   7.1430000  -0.7370000   0.6170000
   8.2110000  -2.3690000   1.5080000   8.4900000  -1.8410000   2.4200000
   8.0640000  -3.8600000   1.8200000   7.7990000  -4.4060000   0.9150000
   9.0070000  -4.2460000   2.2070000   7.2930000  -4.0090000   2.5760000
   9.3580000  -2.2070000   0.5120000   9.5180000  -1.1490000   0.3020000
  10.2740000  -2.6160000   0.9380000   9.1260000  -2.7300000  -0.4150000
   6.0860000  -1.1640000   3.3000000   6.2720000  -1.9610000   4.2210000
   6.1270000   0.1700000   3.5170000   6.0830000   1.2430000   2.5270000
   5.0470000   1.4740000   2.2810000   6.6380000   1.0000000   1.6200000
   6.7340000   2.4470000   3.1990000   6.3750000   3.3880000   2.7830000
   7.8190000   2.3750000   3.1220000   6.2990000   2.2580000   4.6480000
   5.2760000   2.6180000   4.7500000   6.9650000   2.7750000   5.3390000
   6.3540000   0.7390000   4.8450000   7.3600000   0.4670000   5.1640000
   5.3570000   0.2420000   5.9080000   5.7750000  -0.1930000   6.9810000
   4.0470000   0.2580000   5.6160000   3.7620000   0.5650000   4.6980000
   3.0140000  -0.2700000   6.5200000   3.0900000   0.2560000   7.4720000
   1.6100000   0.0120000   5.9650000   1.4500000   1.0890000   5.9260000
   1.5380000  -0.3710000   4.9470000   0.5150000  -0.6200000   6.8060000
   0.1700000  -0.0640000   8.0540000   0.6450000   0.8440000   8.3970000
  -0.7800000  -0.6990000   8.8720000  -1.0380000  -0.2710000   9.8300000
  -1.3950000  -1.8890000   8.4460000  -2.1270000  -2.3750000   9.0730000
  -1.0570000  -2.4450000   7.1990000  -1.5240000  -3.3610000   6.8700000
  -0.1030000  -1.8130000   6.3820000   0.1640000  -2.2570000   5.4350000
   3.2020000  -1.7630000   6.8390000   3.2410000  -2.1460000   8.0120000
   3.3720000  -2.6040000   5.8150000   3.3430000  -2.2370000   4.8740000
   3.5210000  -4.0520000   5.9920000   2.7940000  -4.3660000   6.7410000
   3.1630000  -4.7910000   4.6980000   3.7240000  -4.3620000   3.8680000
   3.4620000  -5.8350000   4.7930000   1.6750000  -4.7710000   4.4010000
   0.7880000  -5.5220000   5.1980000   1.1680000  -6.1090000   6.0210000
  -0.5930000  -5.5080000   4.9300000  -1.2690000  -6.0870000   5.5410000
  -1.0940000  -4.7340000   3.8680000  -2.1530000  -4.7260000   3.6570000
  -0.2130000  -3.9780000   3.0760000  -0.5940000  -3.3970000   2.2490000
   1.1680000  -4.0010000   3.3410000   1.8490000  -3.4450000   2.7140000
   4.8840000  -4.4770000   6.5640000   5.0080000  -5.6160000   7.0130000
   5.8690000  -3.5730000   6.6460000   5.7540000  -2.6970000   6.1570000
   7.0270000  -3.7320000   7.5270000   7.3390000  -4.7760000   7.5110000
   8.2010000  -2.8700000   7.0260000   7.8420000  -1.8540000   6.8590000
   8.9670000  -2.8250000   7.8010000   8.8480000  -3.3950000   5.7310000
   8.0810000  -3.6310000   4.9930000   9.7700000  -2.3280000   5.1420000
  10.5520000  -2.0800000   5.8590000  10.2260000  -2.6970000   4.2240000
   9.1930000  -1.4330000   4.9120000   9.6840000  -4.6520000   5.9800000
   9.0580000  -5.4580000   6.3640000  10.1330000  -4.9830000   5.0440000
  10.4720000  -4.4420000   6.7040000   6.6730000  -3.4140000   8.9910000
   6.8370000  -4.2750000   9.8570000   6.1750000  -2.2050000   9.2940000
   6.0270000  -1.5380000   8.5500000   5.9830000  -1.7740000  10.6960000
   6.9130000  -1.9920000  11.2190000   5.7630000  -0.2560000  10.8580000
   5.7180000  -0.0460000  11.9260000   6.9410000   0.5430000  10.2920000
   7.0030000   0.4260000   9.2100000   6.8130000   1.6010000  10.5250000
   7.8720000   0.1980000  10.7410000   4.4600000   0.2600000  10.2450000
   3.5970000  -0.2380000  10.6870000   4.3690000   1.3300000  10.4320000
   4.4640000   0.0820000   9.1690000   4.8990000  -2.5540000  11.4480000
   5.0690000  -2.7890000  12.6430000   3.8110000  -2.9790000  10.7920000
   3.7190000  -2.7380000   9.8150000   2.7250000  -3.7390000  11.4310000
   2.3960000  -3.1550000  12.2910000   1.5020000  -3.8050000  10.4890000
   1.0070000  -2.8330000  10.4950000   1.8310000  -3.9760000   9.4640000
   0.4770000  -4.8900000  10.8460000  -0.3130000  -4.8750000  10.0960000
   0.9680000  -5.8600000  10.7750000  -0.2890000  -4.7590000  12.4870000
  -1.4750000  -3.4220000  12.1770000  -2.1940000  -3.7370000  11.4200000
  -2.0060000  -3.1850000  13.0980000  -0.9490000  -2.5350000  11.8250000
   3.2040000  -5.0860000  12.0360000   3.1000000  -5.2500000  13.2570000
   3.8120000  -6.0230000  11.2720000   3.8300000  -6.1110000   9.8220000
   4.6680000  -5.5240000   9.4460000   2.8970000  -5.7800000   9.3660000
   4.0340000  -7.5910000   9.5010000   4.5010000  -7.7430000   8.5270000
   3.0800000  -8.1150000   9.5530000   4.9400000  -8.0490000  10.6380000
   5.9710000  -7.7840000  10.4030000   4.8540000  -9.1200000  10.8180000
   4.4310000  -7.2300000  11.8300000   3.6590000  -7.8080000  12.3370000
   5.5510000  -6.9430000  12.8360000   5.5690000  -7.5570000  13.9000000
   6.4610000  -6.0010000  12.5470000   6.4100000  -5.5330000  11.6540000
   7.5320000  -5.6120000  13.4840000   8.1440000  -6.4950000  13.6680000
   8.4580000  -4.5410000  12.8590000   7.8360000  -3.7540000  12.4310000
   9.3730000  -3.8970000  13.9140000   9.9760000  -4.6620000  14.4050000
  10.0380000  -3.1700000  13.4480000   8.7870000  -3.3630000  14.6610000
   9.3120000  -5.1780000  11.7360000  10.0240000  -5.8780000  12.1730000
   8.6650000  -5.7470000  11.0680000  10.0840000  -4.1680000  10.8750000
  10.8900000  -3.7130000  11.4510000  10.5220000  -4.6850000  10.0210000
   9.4110000  -3.3920000  10.5110000   6.9580000  -5.2100000  14.8550000
   7.3220000  -5.8050000  15.8680000   6.0280000  -4.2490000  14.9010000
   5.7460000  -3.8060000  14.0380000   5.3710000  -3.8190000  16.1400000
   6.1250000  -3.4210000  16.8190000   4.6570000  -3.0270000  15.9100000
   4.6200000  -4.9480000  16.8600000   4.7080000  -5.0690000  18.0820000
   3.9150000  -5.7910000  16.0990000   3.8700000  -5.6010000  15.1080000
   3.1980000  -6.9680000  16.6030000   2.4790000  -6.6340000  17.3500000
   2.4250000  -7.6130000  15.4470000   1.6500000  -6.9300000  15.0980000
   3.1140000  -7.8060000  14.6250000   1.8430000  -8.8370000  15.8270000
   1.0020000  -8.6730000  16.2600000   4.1150000  -7.9860000  17.3020000
   3.9290000  -8.2800000  18.4860000   5.1090000  -8.5260000  16.5880000
   5.2240000  -8.2290000  15.6290000   6.0170000  -9.5580000  17.0990000
   5.4310000 -10.2960000  17.6470000   6.6840000 -10.2830000  15.9220000
   7.0430000  -9.5410000  15.2080000   7.5590000 -10.8170000  16.2950000
   5.8010000 -11.2880000  15.2000000   4.8450000 -10.8610000  14.2610000
   4.7040000  -9.8090000  14.0630000   4.0520000 -11.7970000  13.5810000
   3.3000000 -11.4510000  12.8870000   4.2250000 -13.1730000  13.8140000
   3.6170000 -13.8930000  13.2860000   5.1720000 -13.6090000  14.7560000
   5.2960000 -14.6640000  14.9460000   5.9430000 -12.6660000  15.4610000
   6.6520000 -13.0050000  16.2020000   7.0810000  -9.0350000  18.0830000
   7.5950000  -9.8250000  18.8770000   7.4220000  -7.7380000  18.0530000
   6.9990000  -7.1460000  17.3530000   8.5280000  -7.1630000  18.8340000
   8.8190000  -7.8780000  19.6040000   9.7320000  -7.0100000  17.8820000
   9.8110000  -7.9290000  17.3010000   9.5220000  -6.2070000  17.1750000
  11.1130000  -6.7670000  18.4690000  11.4010000  -6.9100000  19.8450000
  10.6270000  -7.1570000  20.5570000  12.7200000  -6.7570000  20.3090000
  12.9400000  -6.8740000  21.3600000  13.7580000  -6.4660000  19.4090000
  14.7710000  -6.3500000  19.7640000  13.4790000  -6.3390000  18.0400000
  14.2810000  -6.1460000  17.3430000  12.1620000  -6.4810000  17.5730000
  11.9570000  -6.3860000  16.5170000   8.1250000  -5.8540000  19.5620000
   8.5060000  -4.7540000  19.1420000   7.3840000  -5.9510000  20.6900000
   6.7930000  -7.1650000  21.2430000   7.4880000  -7.6210000  21.9490000
   6.5130000  -7.8860000  20.4750000   5.5360000  -6.7100000  21.9740000
   5.2560000  -7.4010000  22.7690000   4.7200000  -6.5840000  21.2620000
   5.9600000  -5.3530000  22.5220000   6.5350000  -5.4990000  23.4360000
   5.1010000  -4.7080000  22.7110000   6.8560000  -4.7880000  21.4140000
   6.2290000  -4.2180000  20.7290000   7.9250000  -3.8560000  22.0050000
   7.6880000  -2.6550000  22.1350000   9.0990000  -4.3910000  22.3660000
   9.2080000  -5.3930000  22.2930000  10.2350000  -3.6070000  22.8730000
   9.9220000  -3.1010000  23.7870000  11.3880000  -4.5580000  23.2250000
  11.0230000  -5.3100000  23.9250000  11.7070000  -5.0700000  22.3170000
  12.5940000  -3.8440000  23.8620000  13.7460000  -4.2440000  23.5710000
  12.4020000  -2.9110000  24.6800000  10.7000000  -2.5270000  21.8760000
  10.8310000  -1.3540000  22.2360000  10.9270000  -2.9110000  20.6110000
  10.8040000  -3.8840000  20.3690000  11.2930000  -1.9660000  19.5500000
  12.0410000  -1.2850000  19.9540000  11.9500000  -2.7060000  18.3770000
  12.8720000  -3.1740000  18.7200000  11.2810000  -3.4970000  18.0380000
  12.2680000  -1.7870000  17.2070000  13.2450000  -0.7800000  17.3380000
  13.7950000  -0.6750000  18.2610000  13.5040000   0.0990000  16.2700000
  14.2480000   0.8740000  16.3750000  12.7770000  -0.0170000  15.0710000
  12.9680000   0.6620000  14.2530000  11.7930000  -1.0120000  14.9420000
  11.2320000  -1.0970000  14.0240000  11.5400000  -1.8940000  16.0090000
  10.7820000  -2.6560000  15.9070000  10.1210000  -1.0930000  19.0620000
  10.3390000   0.0930000  18.8060000   8.9170000  -1.6860000  18.9290000
   8.8860000  -2.6590000  19.1990000   7.6840000  -1.1580000  18.2930000
   7.5620000  -1.7280000  17.3720000   6.4690000  -1.5150000  19.1720000
   6.4210000  -2.6010000  19.2490000   6.6070000  -1.1010000  20.1700000
   5.1300000  -1.0040000  18.6090000   5.0800000   0.0780000  18.7290000
   5.0620000  -1.2390000  17.5470000   3.9400000  -1.6410000  19.3420000
   3.9360000  -2.7160000  19.1620000   4.0360000  -1.4620000  20.4130000
   2.6250000  -1.0330000  18.8380000   2.6470000   0.0420000  19.0150000
   2.5510000  -1.1950000  17.7620000   1.4480000  -1.6320000  19.5150000
   1.4870000  -1.5190000  20.5180000   0.5900000  -1.2150000  19.1820000
   1.3740000  -2.6170000  19.3070000   7.7160000   0.3490000  17.9310000
   7.6430000   1.1890000  18.8390000   7.8170000   0.7060000  16.6310000
   7.7660000  -0.1760000  15.4690000   6.9400000  -0.8840000  15.5340000
   8.7140000  -0.7050000  15.3740000   7.5540000   0.7310000  14.2600000
   6.4900000   0.9260000  14.1280000   7.9860000   0.3040000  13.3550000
   8.2650000   2.0140000  14.6800000   7.8800000   2.8820000  14.1450000
   9.3350000   1.9070000  14.5040000   8.0050000   2.0910000  16.1890000
   8.8950000   2.4930000  16.6740000   6.8170000   3.0060000  16.5370000
   5.6870000   2.5460000  16.7260000   7.1020000   4.3100000  16.6460000
   8.0590000   4.5870000  16.4760000   6.1590000   5.3610000  17.0650000
   5.9680000   5.2220000  18.1290000   6.8050000   6.7420000  16.8840000
   7.7220000   6.7990000  17.4700000   7.0580000   6.8830000  15.8330000
   5.9200000   7.7790000  17.2820000   6.0090000   7.9000000  18.2310000
   4.8080000   5.3250000  16.3350000   4.7310000   5.1090000  15.1230000
   3.7380000   5.6610000  17.0620000   3.8640000   5.8280000  18.0500000
   2.3960000   5.8490000  16.5010000   2.0740000   4.9110000  16.0490000
   1.4200000   6.1860000  17.6390000   1.4490000   5.3730000  18.3640000
   1.7490000   7.1020000  18.1310000  -0.0280000   6.3610000  17.1590000
  -0.1010000   7.2670000  16.5580000  -0.2860000   5.5120000  16.5250000
  -1.0300000   6.4520000  18.3280000  -0.7220000   7.0830000  19.3700000
  -2.1540000   5.9060000  18.2050000   2.3860000   6.9250000  15.4000000
   1.6580000   6.7900000  14.4220000   3.2310000   7.9580000  15.5160000
   3.8170000   7.9840000  16.3380000   3.4160000   9.0060000  14.4890000
   2.4710000   9.5370000  14.3750000   4.4780000  10.0380000  14.9120000
   4.5600000  10.7840000  14.1210000   4.1220000  10.7590000  16.2080000
   4.0490000  10.0560000  17.0390000   4.8930000  11.4940000  16.4390000
   3.1670000  11.2710000  16.0900000   5.7440000   9.4450000  15.0900000
   5.7650000   9.0000000  15.9400000   3.7680000   8.4310000  13.1080000
   3.0670000   8.6910000  12.1280000   4.8260000   7.6170000  13.0130000
   5.3780000   7.4660000  13.8450000   5.2630000   7.0040000  11.7460000
   5.2170000   7.7770000  10.9790000   6.7290000   6.5280000  11.7800000
   6.9810000   6.1730000  10.7810000   7.6590000   7.7000000  12.1060000
   7.4430000   8.1050000  13.0950000   8.6960000   7.3650000  12.0970000
   7.5340000   8.4840000  11.3590000   7.0240000   5.3910000  12.7650000
   6.4060000   4.5210000  12.5440000   8.0690000   5.0950000  12.6740000
   6.8450000   5.7200000  13.7890000   4.3060000   5.9040000  11.2870000
   4.0090000   5.8240000  10.0960000   3.7500000   5.1150000  12.2160000
   4.0450000   5.2200000  13.1760000   2.6890000   4.1450000  11.9220000
   3.0790000   3.4020000  11.2270000   2.2890000   3.4120000  13.2090000
   3.1730000   2.9380000  13.6340000   1.9250000   4.1390000  13.9360000
   1.2160000   2.3590000  13.0050000  -0.1470000   2.7090000  13.0830000
  -0.4360000   3.7260000  13.3040000  -1.1390000   1.7360000  12.8670000
  -2.1830000   2.0080000  12.9210000  -0.7730000   0.4100000  12.5820000
  -1.5390000  -0.3340000  12.4210000   0.5860000   0.0550000  12.5080000
   0.8680000  -0.9640000  12.2910000   1.5790000   1.0290000  12.7200000
   2.6220000   0.7530000  12.6670000   1.4770000   4.8160000  11.2500000
   1.0290000   4.3710000  10.1940000   0.9940000   5.9310000  11.8140000
   1.4040000   6.2250000  12.6900000  -0.0980000   6.7510000  11.2760000
  -0.9960000   6.1370000  11.2000000  -0.3810000   7.8950000  12.2660000
  -0.7500000   7.4630000  13.1960000   0.5440000   8.4290000  12.4810000
  -1.4060000   8.9090000  11.7500000  -1.0040000   9.4210000  10.8750000
  -2.3220000   8.3880000  11.4710000  -1.7230000   9.9470000  12.8310000
  -2.2180000   9.4510000  13.6650000  -0.8060000  10.4200000  13.1830000
  -2.6450000  11.0020000  12.2200000  -2.0830000  11.5950000  11.4980000
  -3.4370000  10.4880000  11.6760000  -3.2530000  11.8780000  13.2510000
  -2.5740000  12.4690000  13.7080000  -3.9590000  12.4480000  12.8090000
  -3.7130000  11.3350000  13.9680000   0.2060000   7.2590000   9.8650000
  -0.6200000   7.0750000   8.9740000   1.3890000   7.8460000   9.6460000
   1.9980000   7.9890000  10.4380000   1.8520000   8.2640000   8.3100000
   1.1880000   9.0510000   7.9540000   3.2890000   8.8400000   8.3770000
   3.8860000   8.1720000   8.9990000   3.9850000   8.8960000   7.0040000
   3.3560000   9.4070000   6.2750000   4.9330000   9.4270000   7.0920000
   4.2030000   7.8910000   6.6430000   3.3200000  10.2320000   9.0520000
   2.7420000  10.1980000   9.9760000   4.3520000  10.4530000   9.3250000
   2.7990000  11.4020000   8.2030000   1.7850000  11.2040000   7.8550000
   2.7940000  12.3080000   8.8090000   3.4510000  11.5690000   7.3450000
   1.7230000   7.1140000   7.2980000   1.0300000   7.2630000   6.2920000
   2.3400000   5.9530000   7.5540000   2.8760000   5.8600000   8.4050000
   2.3290000   4.8410000   6.5840000   2.5540000   5.2730000   5.6090000
   3.4360000   3.8070000   6.8460000   3.4180000   3.0990000   6.0170000
   4.8220000   4.4680000   6.8730000   4.8930000   5.1950000   7.6820000
   5.5900000   3.7120000   7.0340000   5.0130000   4.9720000   5.9250000
   3.2620000   3.0040000   8.1320000   2.3110000   2.4720000   8.1280000
   4.0720000   2.2790000   8.2110000   3.3020000   3.6670000   8.9960000
   0.9500000   4.1810000   6.4290000   0.5980000   3.7620000   5.3280000
   0.1320000   4.1410000   7.4830000   0.4790000   4.4600000   8.3760000
  -1.2710000   3.7250000   7.4110000  -1.3100000   2.7150000   7.0040000
  -1.8400000   3.6880000   8.8350000  -1.2110000   3.0380000   9.4420000
  -1.7830000   4.6880000   9.2640000  -3.2630000   3.1820000   8.9540000
  -3.5440000   1.8240000   8.7110000  -2.7570000   1.1560000   8.3920000
  -4.8460000   1.3280000   8.8950000  -5.0600000   0.2850000   8.7100000
  -5.8700000   2.1880000   9.3250000  -6.8690000   1.8040000   9.4720000
  -5.5980000   3.5490000   9.5520000  -6.3900000   4.2100000   9.8720000
  -4.2960000   4.0480000   9.3640000  -4.0900000   5.0910000   9.5500000
  -2.0930000   4.6300000   6.4700000  -2.8100000   4.1310000   5.5980000
  -1.9280000   5.9560000   6.5700000  -1.3510000   6.3180000   7.3160000
  -2.4940000   6.9130000   5.6120000  -3.5530000   6.6830000   5.5010000
  -2.4080000   8.3450000   6.1560000  -1.4510000   8.5020000   6.6540000
  -2.4460000   9.0270000   5.3070000  -3.5340000   8.7250000   7.0760000
  -3.4780000   8.8200000   8.4250000  -2.5930000   8.6430000   9.0180000
  -4.7230000   9.1630000   8.9210000  -4.9260000   9.3580000   9.8910000
  -5.6540000   9.2750000   7.9160000  -7.0270000   9.5550000   7.9160000
  -7.5490000   9.7040000   8.8500000  -7.7010000   9.6710000   6.6910000
  -8.7550000   9.9070000   6.6740000  -6.9940000   9.5030000   5.4870000
  -7.5150000   9.6170000   4.5480000  -5.6190000   9.1880000   5.4980000
  -5.0880000   9.0510000   4.5680000  -4.9140000   9.0540000   6.7170000
  -1.9030000   6.8020000   4.1950000  -2.6520000   6.9820000   3.2350000
  -0.6220000   6.4420000   4.0160000  -0.0230000   6.3710000   4.8260000
  -0.0910000   6.0730000   2.6910000  -0.2900000   6.9030000   2.0120000
   1.4320000   5.8410000   2.7080000   1.6600000   5.0390000   3.4090000
   1.7270000   5.4910000   1.7190000   2.3020000   7.0660000   3.0440000
   2.0450000   7.4450000   4.0330000   3.7750000   6.6560000   3.0590000
   4.0810000   6.3130000   2.0700000   4.3920000   7.5060000   3.3490000
   3.9330000   5.8500000   3.7760000   2.1380000   8.2010000   2.0320000
   1.1290000   8.6090000   2.0860000   2.8380000   9.0040000   2.2640000
   2.3340000   7.8380000   1.0230000  -0.8190000   4.8490000   2.0930000
  -1.0270000   4.7960000   0.8790000  -1.2610000   3.9030000   2.9290000
  -0.9950000   3.9640000   3.9010000  -2.1730000   2.8310000   2.5260000
  -1.6870000   2.2100000   1.7720000  -2.4030000   2.2070000   3.3890000
  -3.4880000   3.3670000   1.9430000  -3.8280000   3.0720000   0.7970000
  -4.2050000   4.2190000   2.6850000  -3.8950000   4.4170000   3.6250000
  -5.4310000   4.8660000   2.1920000  -6.1300000   4.0880000   1.8840000
  -6.0920000   5.6940000   3.3080000  -5.3720000   6.4310000   3.6630000
  -6.9220000   6.2450000   2.8640000  -6.6560000   4.9390000   4.5080000
  -7.0620000   3.5890000   4.4150000  -6.9200000   3.0240000   3.5060000
  -7.6890000   2.9570000   5.5040000  -8.0180000   1.9310000   5.4170000
  -7.8970000   3.6600000   6.7080000  -8.5500000   3.0590000   7.7370000
  -8.6050000   2.1130000   7.5880000  -7.4510000   4.9950000   6.8220000
  -7.5670000   5.5230000   7.7570000  -6.8470000   5.6310000   5.7210000
  -6.5360000   6.6620000   5.8070000  -5.2060000   5.7180000   0.9310000
  -6.0210000   5.6460000   0.0080000  -4.0860000   6.4460000   0.8380000
  -3.4830000   6.4770000   1.6470000  -3.6880000   7.2440000  -0.3300000
  -4.4350000   8.0220000  -0.4870000  -2.3360000   7.9210000  -0.0290000
  -2.4670000   8.6220000   0.7950000  -1.6480000   7.1440000   0.3050000
  -1.6520000   8.6430000  -1.2070000  -1.5400000   7.9520000  -2.0420000
  -2.4180000   9.8760000  -1.6830000  -2.4410000  10.6310000  -0.8960000
  -1.9270000  10.2970000  -2.5600000  -3.4380000   9.6020000  -1.9540000
  -0.2500000   9.0860000  -0.7920000   0.3460000   8.2130000  -0.5290000
   0.2330000   9.5980000  -1.6250000  -0.3030000   9.7610000   0.0620000
  -3.6360000   6.4120000  -1.6190000  -3.9580000   6.9360000  -2.6820000
  -3.3040000   5.1180000  -1.5500000  -3.0510000   4.7320000  -0.6520000
  -3.3300000   4.2270000  -2.7120000  -2.5420000   4.5540000  -3.3890000
  -3.0520000   2.7880000  -2.2560000  -2.2160000   2.7760000  -1.5560000
  -3.9270000   2.3940000  -1.7390000  -2.7170000   1.8630000  -3.4090000
  -3.2960000   0.7990000  -3.5620000  -1.7820000   2.2190000  -4.2590000
  -1.7420000   1.7050000  -5.1280000  -1.2270000   3.0500000  -4.1130000
  -4.6600000   4.3090000  -3.4840000  -4.6490000   4.4080000  -4.7120000
  -5.7870000   4.3820000  -2.7660000  -5.7040000   4.3350000  -1.7600000
  -7.1410000   4.5520000  -3.3180000  -7.3930000   3.6560000  -3.8840000
  -8.1770000   4.7390000  -2.1940000  -8.1820000   5.7800000  -1.8720000
  -9.1680000   4.4990000  -2.5780000  -7.9040000   3.9320000  -1.0650000
  -7.3200000   4.4380000  -0.4960000  -7.2770000   5.7620000  -4.2510000
  -8.0990000   5.7510000  -5.1660000  -6.4830000   6.8080000  -4.0080000
  -5.8280000   6.7280000  -3.2430000  -6.4580000   8.0780000  -4.7370000
  -7.4190000   8.2520000  -5.2210000  -6.1970000   9.1920000  -3.7020000
  -5.1530000   9.1350000  -3.3910000  -6.3480000  10.1730000  -4.1520000
  -7.2390000   9.0170000  -2.2140000  -8.2860000   9.7460000  -2.6100000
  -5.3580000   8.1180000  -5.8230000  -5.3110000   9.0500000  -6.6180000
  -4.5000000   7.0930000  -5.8910000  -4.6040000   6.3610000  -5.2030000
  -3.3690000   6.9860000  -6.8280000  -3.2000000   7.9430000  -7.3220000
  -2.0930000   6.6100000  -6.0380000  -2.3200000   5.7260000  -5.4420000
  -0.9260000   6.2330000  -6.9620000  -0.7480000   7.0190000  -7.6950000
  -0.0220000   6.0920000  -6.3680000  -1.1410000   5.2980000  -7.4800000
  -1.6520000   7.7170000  -5.0500000  -2.4900000   7.9820000  -4.4050000
  -0.8660000   7.3150000  -4.4110000  -1.1320000   9.0140000  -5.6810000
  -1.8940000   9.4600000  -6.3200000  -0.8830000   9.7210000  -4.8900000
  -0.2310000   8.8170000  -6.2630000  -3.6950000   5.9780000  -7.9340000
  -3.5650000   6.2850000  -9.1180000  -4.1940000   4.8000000  -7.5510000
  -4.2780000   4.6360000  -6.5580000  -4.6560000   3.7220000  -8.4300000
  -3.7770000   3.2200000  -8.8350000  -5.4270000   2.7110000  -7.5720000
  -6.1830000   3.2490000  -7.0000000  -5.9430000   1.9950000  -8.2110000
  -4.5730000   1.9400000  -6.5810000  -3.3610000   1.8230000  -6.7060000
  -5.1910000   1.3950000  -5.5680000  -4.6450000   0.9030000  -4.8750000
  -6.2000000   1.4240000  -5.5440000  -5.4980000   4.1750000  -9.6480000
  -5.1140000   3.8270000 -10.7680000  -6.5830000   4.9730000  -9.5000000
  -7.1900000   5.4580000  -8.2610000  -6.4590000   5.8440000  -7.5500000
  -7.7680000   4.6550000  -7.8030000  -8.1330000   6.5840000  -8.6700000
  -7.5730000   7.5110000  -8.7890000  -8.9470000   6.7140000  -7.9570000
  -8.6330000   6.1000000 -10.0280000  -8.9920000   6.9310000 -10.6350000
  -9.4300000   5.3690000  -9.8900000  -7.4070000   5.4060000 -10.6370000
  -7.7390000   4.5330000 -11.2000000  -6.6740000   6.3420000 -11.6110000
  -7.1740000   6.5810000 -12.7090000  -5.5090000   6.8770000 -11.2290000
  -5.1440000   6.6350000 -10.3190000  -4.6810000   7.7380000 -12.0780000
  -5.3010000   8.1200000 -12.8890000  -4.1650000   8.9690000 -11.2940000
  -3.3150000   8.6550000 -10.6900000  -3.6800000  10.0300000 -12.2960000
  -4.4860000  10.3140000 -12.9730000  -3.3450000  10.9200000 -11.7640000
  -2.8520000   9.6410000 -12.8890000  -5.1860000   9.5940000 -10.3110000
  -5.4270000   8.8670000  -9.5360000  -4.7120000  10.4370000  -9.8070000
  -6.4970000  10.0890000 -10.9380000  -6.9760000   9.2950000 -11.5110000
  -7.1760000  10.3950000 -10.1420000  -6.3080000  10.9430000 -11.5880000
  -3.5430000   6.9380000 -12.7380000  -3.3810000   6.9980000 -13.9560000
  -2.7650000   6.1610000 -11.9660000  -2.9470000   6.1350000 -10.9730000
  -1.5720000   5.4640000 -12.4920000  -1.0340000   6.1930000 -13.0980000
  -0.5800000   5.0360000 -11.3810000   0.2750000   4.5830000 -11.8830000
  -0.0540000   6.2750000 -10.6400000  -0.8540000   6.7490000 -10.0720000
   0.7560000   6.0050000  -9.9630000   0.3480000   6.9830000 -11.3650000
  -1.1450000   3.9840000 -10.4060000  -1.9180000   4.4360000  -9.7840000
  -1.6000000   3.1800000 -10.9840000  -0.0870000   3.3420000  -9.4960000
   0.4040000   4.0920000  -8.8770000  -0.5680000   2.6200000  -8.8360000
   0.6570000   2.8260000 -10.1030000  -1.8780000   4.3060000 -13.4610000
  -1.1160000   4.1160000 -14.4090000  -2.9640000   3.5380000 -13.2690000
  -3.5700000   3.7300000 -12.4830000  -3.2530000   2.3710000 -14.1260000
  -2.2900000   1.9370000 -14.3960000  -3.9800000   1.2560000 -13.3510000
  -4.8450000   1.6560000 -12.8220000  -4.3360000   0.5030000 -14.0540000
  -3.0490000   0.5810000 -12.3650000  -3.0500000   0.9670000 -11.0140000
  -3.7830000   1.6750000 -10.6580000  -2.0650000   0.4750000 -10.1380000
  -2.0530000   0.8000000  -9.1080000  -1.0940000  -0.4390000 -10.6080000
  -0.1150000  -0.9000000  -9.7830000  -0.0400000  -0.3770000  -8.9820000
  -1.1330000  -0.8700000 -11.9490000  -0.3930000  -1.5740000 -12.2990000
  -2.1020000  -0.3530000 -12.8290000  -2.0990000  -0.6530000 -13.8670000
  -3.9000000   2.7160000 -15.4800000  -3.3990000   2.2160000 -16.4920000
  -4.9280000   3.5870000 -15.5700000  -5.7860000   4.0630000 -14.4910000
  -5.4210000   5.0260000 -14.1340000  -5.8560000   3.3560000 -13.6640000
  -7.1580000   4.2320000 -15.1380000  -7.7960000   4.9270000 -14.5920000
  -7.6440000   3.2610000 -15.2350000  -6.7850000   4.7650000 -16.5180000
  -6.5580000   5.8290000 -16.4430000  -7.5790000   4.5930000 -17.2450000
  -5.5200000   3.9710000 -16.8590000  -5.8160000   3.0630000 -17.3840000
  -4.5730000   4.7740000 -17.7660000  -4.6060000   4.6140000 -18.9870000
  -3.6960000   5.5990000 -17.1770000  -3.7630000   5.7340000 -16.1780000
  -2.6950000   6.3970000 -17.9020000  -3.0870000   6.6500000 -18.8870000
  -2.4710000   7.7170000 -17.1430000  -2.0680000   7.5030000 -16.1530000
  -1.7470000   8.3250000 -17.6850000  -4.0280000   8.6450000 -16.9870000
  -3.5530000   9.6090000 -16.1920000  -1.3540000   5.6590000 -18.1390000
  -0.4340000   6.2380000 -18.7240000  -1.2320000   4.3950000 -17.7070000
  -2.0320000   3.9820000 -17.2480000  -0.0230000   3.5770000 -17.8170000
   0.8660000   4.2070000 -17.8330000   0.0480000   2.9060000 -16.9610000
  -0.0550000   2.9870000 -18.7330000  63.6740000 -17.5600000  10.3650000
  64.2620000 -18.0640000   9.7160000  62.8860000 -17.1960000   9.8480000
  63.3380000 -18.2100000  11.0600000  64.4280000 -16.4500000  11.0020000
  63.8020000 -16.0230000  11.7840000  65.7090000 -16.9650000  11.6780000
  66.2820000 -16.1250000  12.0720000  65.4440000 -17.6230000  12.5050000
  66.4930000 -17.6850000  10.7410000  67.2810000 -17.9990000  11.1890000
  64.7100000 -15.3060000  10.0180000  64.0920000 -14.2510000  10.1370000
  65.6190000 -15.4760000   9.0470000  66.1580000 -16.3310000   9.0570000
  66.0910000 -14.4200000   8.1190000  66.6290000 -13.6740000   8.7040000
  67.0860000 -15.0060000   7.0980000  66.5780000 -15.7550000   6.4910000
  67.7020000 -13.9540000   6.1730000  68.1630000 -13.1610000   6.7620000
  68.4580000 -14.4170000   5.5380000  66.9370000 -13.5230000   5.5270000
  68.1510000 -15.6250000   7.7880000  68.7320000 -16.0150000   7.1320000
  64.9660000 -13.6820000   7.3900000  64.9560000 -12.4540000   7.3410000
  64.0010000 -14.4080000   6.8250000  64.0090000 -15.4100000   6.9550000
  62.8960000 -13.8270000   6.0530000  63.3200000 -13.1470000   5.3150000
  62.1580000 -14.9360000   5.2890000  61.5530000 -15.5110000   5.9900000
  61.4680000 -14.4740000   4.5830000  63.0710000 -15.8910000   4.5340000
  63.3750000 -15.6560000   3.1810000  62.9450000 -14.8100000   2.6650000
  64.2380000 -16.5240000   2.4910000  64.4650000 -16.3300000   1.4530000
  64.8040000 -17.6300000   3.1510000  65.4690000 -18.3020000   2.6290000
  64.5130000 -17.8610000   4.5040000  64.9600000 -18.7000000   5.0170000
  63.6450000 -16.9970000   5.1910000  63.4360000 -17.1810000   6.2350000
  61.9530000 -13.0020000   6.9410000  61.5720000 -11.8930000   6.5690000
  61.6480000 -13.4880000   8.1480000  61.9330000 -14.4320000   8.3630000
  60.9380000 -12.7160000   9.1790000  60.0240000 -12.3240000   8.7320000
  60.5290000 -13.6210000  10.3490000  61.3750000 -14.2290000  10.6710000
  60.2080000 -12.9990000  11.1840000  59.4490000 -14.4540000   9.9630000
  59.7960000 -15.3300000   9.7790000  61.7210000 -11.4870000   9.6690000
  61.1240000 -10.4220000   9.8420000  63.0520000 -11.5780000   9.8140000
  63.4790000 -12.4880000   9.7100000  63.9200000 -10.4210000  10.1120000
  63.5520000  -9.9490000  11.0230000  65.3650000 -10.8850000  10.3790000
  65.3520000 -11.6170000  11.1870000  65.7730000 -11.3650000   9.4890000
  66.2880000  -9.7200000  10.7790000  66.3470000  -9.0050000   9.9580000
  65.8740000  -9.2190000  11.6540000  67.7010000 -10.2220000  11.1080000
  67.6300000 -10.9420000  11.9230000  68.1240000 -10.7330000  10.2430000
  68.6400000  -9.0910000  11.5530000  68.1540000  -8.5140000  12.3400000
  69.5300000  -9.5470000  11.9870000  69.0490000  -8.1990000  10.4330000
  68.2750000  -7.6730000  10.0510000  69.7280000  -7.5210000  10.7500000
  69.4770000  -8.7210000   9.6820000  63.8400000  -9.3550000   9.0150000
  63.6240000  -8.1880000   9.3260000  63.9460000  -9.7450000   7.7410000
  64.1650000 -10.7160000   7.5690000  63.7760000  -8.8430000   6.5910000
  64.4930000  -8.0270000   6.6890000  64.0720000  -9.5980000   5.2780000
  63.4660000 -10.5040000   5.2570000  63.7630000  -8.9770000   4.4370000
  65.5530000  -9.9790000   5.0790000  65.9410000 -10.4560000   5.9790000
  65.6830000 -10.9640000   3.9170000  65.3250000 -10.5070000   2.9950000
  66.7270000 -11.2510000   3.7930000  65.1020000 -11.8620000   4.1270000
  66.4190000  -8.7580000   4.7630000  66.4190000  -8.0670000   5.6060000
  67.4460000  -9.0750000   4.5820000  66.0410000  -8.2480000   3.8770000
  62.3840000  -8.1830000   6.5630000  62.2940000  -6.9640000   6.4170000
  61.3090000  -8.9630000   6.7630000  61.4630000  -9.9580000   6.8500000
  59.9210000  -8.4600000   6.8510000  59.6590000  -8.0070000   5.8950000
  58.9610000  -9.6390000   7.1100000  59.1240000 -10.4010000   6.3480000
  59.1890000 -10.0750000   8.0830000  57.4780000  -9.2220000   7.0780000
  57.2900000  -8.4630000   7.8370000  57.2550000  -8.7930000   6.1010000
  56.5240000 -10.4000000   7.3250000  55.5010000 -10.0420000   7.2040000
  56.6940000 -11.1650000   6.5670000  56.6710000 -10.9450000   8.6940000
  56.3820000 -10.3360000   9.4460000  57.1770000 -12.1110000   9.0540000
  57.3710000 -12.3910000  10.3080000  57.1210000 -11.7320000  11.0310000
  57.8440000 -13.2520000  10.5460000  57.5360000 -13.0230000   8.1990000
  57.3450000 -12.8940000   7.2160000  57.9700000 -13.8710000   8.5340000
  59.7740000  -7.3590000   7.9110000  59.2080000  -6.3040000   7.6300000
  60.3090000  -7.5930000   9.1100000  60.7190000  -8.5010000   9.2720000
  60.3690000  -6.6010000  10.1920000  59.3580000  -6.2410000  10.3840000
  60.8660000  -7.2850000  11.4790000  60.1770000  -8.0940000  11.7210000
  61.8530000  -7.7140000  11.3060000  60.9530000  -6.3230000  12.6740000
  61.6660000  -5.5320000  12.4430000  59.9770000  -5.8620000  12.8260000
  61.3830000  -7.0340000  13.9740000  60.8400000  -8.1170000  14.3060000
  62.2570000  -6.4950000  14.6970000  61.2170000  -5.3680000   9.8210000
  60.7430000  -4.2370000   9.9210000  62.4630000  -5.5800000   9.3830000
  62.7730000  -6.5390000   9.3150000  63.4800000  -4.5420000   9.1670000
  63.5730000  -3.9720000  10.0920000  64.8260000  -5.2470000   8.9190000
  65.0260000  -5.8850000   9.7800000  64.7460000  -5.8780000   8.0340000
  66.0170000  -4.2910000   8.7370000  65.9110000  -3.7640000   7.7890000
  66.0110000  -3.5540000   9.5400000  67.3770000  -4.9950000   8.7520000
  67.5330000  -6.1590000   9.1080000  68.4330000  -4.3060000   8.3720000
  69.3340000  -4.7610000   8.3710000  68.3350000  -3.3440000   8.0810000
  63.1320000  -3.5290000   8.0580000  63.5190000  -2.3620000   8.1490000
  62.3750000  -3.9360000   7.0320000  62.1230000  -4.9130000   6.9870000
  61.9080000  -3.0400000   5.9630000  62.7770000  -2.5450000   5.5290000
  61.2150000  -3.8720000   4.8660000  60.5140000  -4.5560000   5.3450000
  60.6350000  -3.2090000   4.2240000  62.1900000  -4.6760000   3.9820000
  62.9340000  -5.1740000   4.6040000  61.4320000  -5.7400000   3.1890000
  60.6890000  -5.2720000   2.5440000  62.1300000  -6.3140000   2.5780000
  60.9340000  -6.4220000   3.8780000  62.9180000  -3.7740000   2.9820000
  63.5320000  -3.0430000   3.5090000  63.5690000  -4.3770000   2.3500000
  62.1980000  -3.2540000   2.3500000  60.9880000  -1.9090000   6.4710000
  61.0550000  -0.7940000   5.9510000  60.1560000  -2.1680000   7.4870000
  60.1800000  -3.0910000   7.8960000  59.2220000  -1.1860000   8.0620000
  58.4960000  -0.9030000   7.3000000  58.6760000  -1.6460000   8.8860000
  59.9010000   0.0950000   8.5780000  59.6090000   1.1780000   8.0630000
  60.8500000  -0.0020000   9.5330000  61.0870000  -1.1590000  10.3830000
  61.7780000  -1.8410000   9.8870000  60.1590000  -1.6750000  10.6330000
  61.7340000  -0.6170000  11.6540000  62.3750000  -1.3590000  12.1300000
  60.9630000  -0.2700000  12.3420000  62.5320000   0.5730000  11.1290000
  63.4660000   0.2180000  10.6940000  62.7270000   1.3060000  11.9120000
  61.6150000   1.1380000  10.0390000  60.9180000   1.8350000  10.5040000
  62.4090000   1.8880000   8.9620000  62.4410000   3.1170000   8.9850000
  63.0140000   1.1800000   7.9970000  62.9700000   0.1720000   8.0500000
  63.6870000   1.7930000   6.8320000  64.4820000   2.4380000   7.2060000
  64.3490000   0.7260000   5.9350000  63.6160000  -0.0410000   5.6830000
  64.9000000   1.3090000   4.6280000  65.5900000   2.1250000   4.8420000
  65.4270000   0.5350000   4.0700000  64.0870000   1.6770000   4.0010000
  65.5210000   0.0620000   6.6690000  65.1820000  -0.3830000   7.6050000
  65.9470000  -0.7260000   6.0490000  66.2920000   0.8010000   6.8900000
  62.7320000   2.7020000   6.0440000  63.0240000   3.8840000   5.8520000
  61.5760000   2.1760000   5.6220000  61.4070000   1.1930000   5.7840000
  60.5180000   2.9490000   4.9450000  60.9330000   3.3570000   4.0230000
  59.3380000   2.0410000   4.5530000  58.9900000   1.5000000   5.4330000
  58.1550000   2.7910000   3.9340000  58.4920000   3.3870000   3.0850000
  57.4020000   2.0790000   3.5960000  57.6940000   3.4450000   4.6740000
  59.7760000   1.1160000   3.5820000  59.0870000   0.4540000   3.4820000
  60.0480000   4.1430000   5.7830000  59.9930000   5.2630000   5.2700000
  59.7300000   3.9260000   7.0660000  59.7860000   2.9810000   7.4190000
  59.3260000   4.9810000   8.0030000  58.4010000   5.4230000   7.6320000
  59.0330000   4.3640000   9.3820000  58.2720000   3.5900000   9.2740000
  59.9450000   3.9000000   9.7570000  58.5460000   5.4020000  10.4110000
  59.2360000   6.2440000  10.4430000  57.5690000   5.7780000  10.1060000
  58.4410000   4.8520000  11.8340000  58.5770000   3.6660000  12.1050000
  58.2040000   5.7030000  12.8120000  58.1340000   5.3450000  13.7540000
  58.1000000   6.6880000  12.6160000  60.3640000   6.1130000   8.1000000
  60.0080000   7.2760000   7.9390000  61.6350000   5.7900000   8.3530000
  61.8630000   4.8160000   8.4880000  62.7350000   6.7590000   8.4500000
  62.5090000   7.4560000   9.2570000  64.0350000   6.0220000   8.8190000
  63.8790000   5.5140000   9.7710000  64.2550000   5.2730000   8.0580000
  65.2400000   6.9650000   8.9430000  65.4310000   7.4290000   7.9750000
  64.9960000   7.7560000   9.6520000  66.5130000   6.2380000   9.4210000
  66.4690000   5.4980000  10.4340000  67.5880000   6.4240000   8.7960000
  62.8950000   7.5950000   7.1690000  62.9950000   8.8230000   7.2350000
  62.8970000   6.9390000   6.0030000  62.8250000   5.9310000   6.0180000
  62.9610000   7.6070000   4.7010000  63.8820000   8.1890000   4.6610000
  63.0190000   6.5460000   3.5900000  63.7300000   5.7760000   3.8890000
  62.0470000   6.0620000   3.4970000  63.4390000   7.0700000   2.2260000
  62.5750000   7.8850000   1.4670000  61.6020000   8.1570000   1.8480000
  62.9650000   8.3370000   0.1940000  62.2900000   8.9470000  -0.3890000
  64.2250000   7.9900000  -0.3210000  64.5280000   8.3380000  -1.2970000
  65.0910000   7.1780000   0.4310000  66.0560000   6.9050000   0.0320000
  64.6980000   6.7180000   1.7010000  65.3670000   6.0900000   2.2690000
  61.7870000   8.5830000   4.5060000  61.9990000   9.7510000   4.1690000
  60.5510000   8.1200000   4.7440000  60.4460000   7.1590000   5.0350000
  59.3490000   8.9570000   4.6800000  59.2780000   9.3800000   3.6780000
  58.0870000   8.1140000   4.9140000  58.0100000   7.3650000   4.1260000
  58.1850000   7.5840000   5.8610000  56.8130000   8.9070000   4.9570000
  56.0730000   9.2600000   3.8810000  56.2930000   8.9890000   2.8590000
  55.0120000  10.0490000   4.2810000  54.3290000  10.4260000   3.6380000
  55.0320000  10.2770000   5.6400000  54.2120000  11.0270000   6.4970000
  53.3690000  11.5750000   6.1030000  54.5090000  11.0610000   7.8700000
  53.8930000  11.6380000   8.5440000  55.6080000  10.3350000   8.3670000
  55.8290000  10.3580000   9.4230000  56.4230000   9.5830000   7.4970000
  57.2620000   9.0310000   7.8930000  56.1650000   9.5430000   6.1070000
  59.4160000  10.1460000   5.6490000  59.2100000  11.2800000   5.2260000
  59.7550000   9.9100000   6.9190000  59.9210000   8.9530000   7.1950000
  59.8920000  10.9430000   7.9510000  58.9200000  11.4150000   8.0970000
  60.3080000  10.2860000   9.2750000  59.5540000   9.5500000   9.5550000
  61.2530000   9.7610000   9.1290000  60.4560000  11.2950000  10.4260000
  59.5780000  12.1740000  10.5940000  61.4410000  11.1860000  11.1950000
  60.8860000  12.0450000   7.5450000  60.5610000  13.2320000   7.6080000
  62.0810000  11.6630000   7.0770000  62.2950000  10.6760000   7.0560000
  63.0810000  12.5990000   6.5640000  63.3340000  13.3040000   7.3550000
  64.3460000  11.8090000   6.1940000  64.7060000  11.2630000   7.0670000
  64.1140000  11.0850000   5.4130000  65.4580000  12.7330000   5.7240000
  66.0000000  13.5230000   6.4830000  65.8260000  12.6790000   4.4630000
  66.5610000  13.2980000   4.1520000  65.3950000  12.0240000   3.8260000
  62.5680000  13.4210000   5.3650000  62.7480000  14.6390000   5.3280000
  61.9030000  12.7790000   4.3990000  61.7710000  11.7810000   4.4810000
  61.3410000  13.4640000   3.2320000  62.1280000  14.0970000   2.8220000
  60.9720000  12.4130000   2.1700000  61.8290000  11.7560000   2.0210000
  60.1510000  11.8080000   2.5550000  60.5580000  12.9880000   0.8020000
  59.6470000  13.5760000   0.9110000  61.6470000  13.8620000   0.1720000
  62.5990000  13.3310000   0.1710000  61.3820000  14.1140000  -0.8540000
  61.7510000  14.7920000   0.7320000  60.2820000  11.8260000  -0.1510000
  59.5290000  11.1700000   0.2850000  59.9140000  12.2030000  -1.1050000
  61.1960000  11.2550000  -0.3180000  60.1680000  14.3950000   3.6010000
  60.0400000  15.4830000   3.0350000  59.3470000  14.0160000   4.5840000
  59.4690000  13.0960000   4.9830000  58.3260000  14.8900000   5.1680000
  57.7500000  15.3010000   4.3390000  57.3560000  14.1230000   6.0930000
  57.5610000  13.0530000   6.0540000  57.5140000  14.4390000   7.1250000
  55.8730000  14.3250000   5.7370000  55.6650000  13.7420000   4.8400000
  55.2620000  13.9110000   6.5390000  55.4680000  15.7950000   5.4860000
  55.3390000  16.1920000   4.3050000  55.2180000  16.5630000   6.4450000
  58.9570000  16.0790000   5.9050000  58.4810000  17.1960000   5.7450000
  60.0460000  15.8820000   6.6610000  60.3650000  14.9320000   6.7890000
  60.7790000  16.9580000   7.3530000  60.0710000  17.4940000   7.9850000
  61.8480000  16.3310000   8.2660000  61.3660000  15.5920000   8.9060000
  62.5990000  15.8220000   7.6610000  62.5460000  17.3600000   9.1660000
  63.0870000  18.0800000   8.5520000  61.7940000  17.8860000   9.7540000
  63.5370000  16.6530000  10.1040000  63.0050000  15.9380000  10.7320000
  64.2550000  16.0990000   9.4980000  64.3180000  17.6320000  10.9910000
  65.1170000  17.0780000  11.4850000  64.7850000  18.3870000  10.3590000
  63.4570000  18.2770000  12.0190000  63.0140000  17.5880000  12.6110000
  64.0040000  18.8800000  12.6180000  62.7350000  18.8440000  11.6000000
  61.3590000  17.9900000   6.3760000  61.1850000  19.1920000   6.5720000
  61.9890000  17.5330000   5.2910000  62.1410000  16.5370000   5.2220000
  62.4220000  18.3910000   4.1760000  63.0840000  19.1640000   4.5660000
  63.2040000  17.5570000   3.1440000  62.6130000  16.6820000   2.8730000
  63.3440000  18.1510000   2.2410000  64.5850000  17.0860000   3.6370000
  64.4520000  16.4310000   4.4980000  65.0440000  16.4920000   2.8470000
  65.5390000  18.2390000   4.0120000  66.3370000  18.0800000   4.9690000
  65.5230000  19.3050000   3.3500000  61.2420000  19.1280000   3.5090000
  61.3130000  20.3360000   3.2720000  60.1360000  18.4210000   3.2460000
  60.1500000  17.4340000   3.4590000  58.8970000  18.9890000   2.6760000
  59.1500000  19.5140000   1.7550000  57.9120000  17.8660000   2.3140000
  57.7520000  17.2270000   3.1830000  56.5500000  18.3560000   1.8250000
  56.6670000  19.1310000   1.0670000  55.9880000  17.5170000   1.4140000
  55.9860000  18.7680000   2.6620000  58.4790000  17.0910000   1.2760000
  59.1110000  16.5040000   1.6960000  58.2300000  20.0170000   3.5980000
  57.7310000  21.0370000   3.1260000  58.2540000  19.8020000   4.9120000
  58.6140000  18.9180000   5.2410000  57.7100000  20.7220000   5.9120000
  56.6710000  20.9170000   5.6480000  57.7210000  20.0660000   7.3060000
  57.0980000  19.1730000   7.2740000  58.7380000  19.7530000   7.5420000
  57.2300000  20.9670000   8.4530000  57.2350000  20.3790000   9.3710000
  57.9470000  21.7770000   8.5890000  55.8160000  21.5550000   8.2490000
  54.9840000  20.9280000   7.5480000  55.5260000  22.6340000   8.8240000
  58.4290000  22.0760000   5.9000000  57.7670000  23.0990000   6.0450000
  59.7450000  22.1160000   5.6550000  60.2460000  21.2440000   5.5590000
  60.4750000  23.3700000   5.4300000  60.4780000  23.9520000   6.3520000
  61.5080000  23.1480000   5.1620000  59.8550000  24.2250000   4.3150000
  59.5630000  25.4050000   4.5220000  59.5920000  23.6160000   3.1510000
  59.8520000  22.6450000   3.0590000  58.8870000  24.2540000   2.0310000
  59.4260000  25.1660000   1.7750000  58.9200000  23.3070000   0.8160000
  59.9330000  22.9300000   0.6760000  58.2810000  22.4510000   1.0290000
  58.4460000  23.9640000  -0.4960000  57.5690000  24.5860000  -0.3150000
  59.5550000  24.8190000  -1.1080000  60.4550000  24.2210000  -1.2520000
  59.2370000  25.2090000  -2.0750000  59.7830000  25.6580000  -0.4500000
  58.0570000  22.8830000  -1.5020000  57.1960000  22.3310000  -1.1260000
  57.7870000  23.3430000  -2.4530000  58.8950000  22.2010000  -1.6450000
  57.4460000  24.6560000   2.4010000  57.0450000  25.7960000   2.1660000
  56.6790000  23.7380000   3.0080000  57.0860000  22.8240000   3.1500000
  55.2830000  23.9550000   3.4390000  54.6840000  24.1910000   2.5590000
  54.7320000  22.6640000   4.0770000  54.9610000  21.8180000   3.4290000
  55.2190000  22.5020000   5.0390000  53.2080000  22.7200000   4.2930000
  52.9530000  23.6060000   4.8740000  52.7130000  22.7890000   3.3240000
  52.6660000  21.4940000   5.0410000  53.1640000  21.4100000   6.0070000
  51.6070000  21.6540000   5.2420000  52.8150000  20.2570000   4.2490000
  52.2820000  20.2140000   3.3930000  53.5390000  19.1900000   4.5480000
  53.5210000  18.1430000   3.7880000  52.9620000  18.0970000   2.9470000
  54.1570000  17.3930000   4.0180000  54.3130000  19.1000000   5.5820000
  54.4050000  19.8700000   6.2290000  54.7420000  18.2090000   5.7890000
  55.1600000  25.1460000   4.3930000  54.3180000  26.0180000   4.1930000
  56.0160000  25.2020000   5.4100000  56.6710000  24.4400000   5.5150000
  56.0430000  26.2680000   6.4100000  55.0190000  26.4020000   6.7590000
  56.9040000  25.8220000   7.6060000  56.7280000  24.7650000   7.8040000
  57.9590000  25.9410000   7.3560000  56.5990000  26.5980000   8.8960000
  57.2560000  26.2230000   9.6810000  56.8220000  27.6540000   8.7440000
  55.1520000  26.4510000   9.3800000  54.4840000  27.4250000   9.7000000
  54.5840000  25.2630000   9.4210000  53.6290000  25.2000000   9.7430000
  55.0850000  24.4250000   9.1620000  56.4980000  27.6110000   5.8150000
  55.8780000  28.6370000   6.0860000  57.5180000  27.6160000   4.9470000
  58.0230000  26.7580000   4.7780000  57.9230000  28.8130000   4.1940000
  58.1700000  29.5920000   4.9150000  59.1850000  28.5260000   3.3610000
  59.9670000  28.1500000   4.0190000  58.9570000  27.7470000   2.6330000
  59.7230000  29.7530000   2.6010000  60.6090000  29.4450000   2.0470000
  58.9810000  30.0700000   1.8690000  60.0970000  30.9390000   3.5190000
  59.8380000  32.1120000   3.1500000  60.6770000  30.7180000   4.6090000
  56.7860000  29.3570000   3.3130000  56.5370000  30.5590000   3.3050000
  56.0620000  28.4920000   2.5950000  56.3300000  27.5180000   2.5960000
  54.8940000  28.8990000   1.8040000  55.1810000  29.7770000   1.2260000
  54.5150000  27.8100000   0.7930000  54.4070000  26.8480000   1.2940000
  53.5680000  28.0720000   0.3220000  55.5910000  27.7180000  -0.2970000
  55.7140000  28.7030000  -0.7480000  56.5400000  27.4330000   0.1560000
  55.2190000  26.5420000  -1.6170000  56.6460000  26.8450000  -2.6920000
  57.5660000  26.7420000  -2.1170000  56.6470000  26.1240000  -3.5100000
  56.5940000  27.8540000  -3.1010000  53.7010000  29.3420000   2.6670000
  53.0130000  30.2930000   2.3050000  53.4840000  28.7370000   3.8400000
  54.0230000  27.9100000   4.0560000  52.5310000  29.2400000   4.8440000
  51.5400000  29.2640000   4.3890000  52.4600000  28.2820000   6.0400000
  52.1720000  27.2910000   5.6880000  53.4370000  28.2150000   6.5180000
  51.5120000  28.7390000   6.9860000  51.4930000  28.1200000   7.7190000
  52.8710000  30.6770000   5.2800000  52.0140000  31.5630000   5.2330000
  54.1450000  30.9410000   5.6060000  54.7860000  30.1610000   5.6420000
  54.6950000  32.2870000   5.8440000  54.1560000  32.7460000   6.6730000
  56.1730000  32.1470000   6.2670000  56.2050000  31.8550000   7.3160000
  56.6330000  31.3420000   5.6930000  57.0320000  33.4080000   6.0710000
  57.0030000  33.6940000   5.0190000  56.6380000  34.2240000   6.6770000
  58.4890000  33.1230000   6.4600000  58.5420000  32.9640000   7.5370000
  58.8240000  32.2090000   5.9700000  59.4500000  34.2600000   6.0830000
  59.1380000  35.1740000   6.5870000  60.4410000  33.9940000   6.4500000
  59.5110000  34.4840000   4.6160000  58.6870000  34.9680000   4.2910000
  60.3030000  35.0600000   4.3680000  59.5950000  33.6120000   4.1130000
  54.4930000  33.2200000   4.6400000  54.0590000  34.3520000   4.8200000
  54.7650000  32.7690000   3.4190000  55.1960000  31.8580000   3.3400000
  54.5620000  33.5510000   2.1930000  55.1590000  34.4600000   2.2700000
  55.0810000  32.7470000   0.9950000  56.1090000  32.4380000   1.1850000
  54.4710000  31.8520000   0.8730000  55.0450000  33.5560000  -0.3020000
  55.5960000  34.6790000  -0.3330000  54.4490000  33.0600000  -1.2860000
  53.0940000  33.9850000   1.9830000  52.8170000  35.1400000   1.6550000
  52.1380000  33.0780000   2.2100000  52.4240000  32.1370000   2.4380000
  50.7010000  33.3830000   2.2210000  50.4460000  33.8890000   1.2900000
  49.9000000  32.0690000   2.3010000  50.2190000  31.5330000   3.1950000
  48.8430000  32.3060000   2.4210000  50.0680000  31.1450000   1.0770000
  51.1150000  31.1070000   0.7750000  49.6230000  29.7220000   1.4120000
  48.5750000  29.7130000   1.7120000  49.7550000  29.0800000   0.5410000
  50.2340000  29.3310000   2.2250000  49.2520000  31.6270000  -0.1200000
  49.5300000  32.6470000  -0.3830000  49.4480000  30.9750000  -0.9720000
  48.1870000  31.5880000   0.1110000  50.3160000  34.3480000   3.3630000
  49.5020000  35.2510000   3.1620000  50.9200000  34.2050000   4.5450000
  51.5370000  33.4160000   4.6760000  50.7600000  35.1500000   5.6570000
  49.6910000  35.2700000   5.8320000  51.3720000  34.5670000   6.9440000
  50.8710000  33.6260000   7.1740000  52.4240000  34.3430000   6.7700000
  51.2940000  35.4820000   8.1760000  51.7360000  34.9490000   9.0180000
  51.9120000  36.3620000   7.9960000  49.8650000  35.9210000   8.5670000
  48.8830000  35.1910000   8.2870000  49.7230000  36.9880000   9.2140000
  51.3060000  36.5540000   5.3310000  50.6560000  37.5400000   5.6650000
  52.4480000  36.6780000   4.6450000  52.9750000  35.8390000   4.4480000
  52.9540000  37.9600000   4.1240000  53.1280000  38.6320000   4.9650000
  54.2830000  37.7870000   3.3760000  54.1790000  36.9980000   2.6310000
  54.4980000  38.7170000   2.8500000  55.4790000  37.4630000   4.2780000
  55.6760000  38.3210000   4.9210000  55.2360000  36.6160000   4.9200000
  56.7370000  37.1430000   3.4450000  57.5080000  36.2310000   3.8310000
  56.9650000  37.8070000   2.4030000  51.9390000  38.6560000   3.2010000
  51.6490000  39.8400000   3.3900000  51.3770000  37.9270000   2.2230000
  51.6820000  36.9700000   2.1160000  50.2660000  38.4130000   1.3810000
  50.6270000  39.2600000   0.7960000  49.7780000  37.3350000   0.3880000
  49.5590000  36.4160000   0.9310000  48.5030000  37.7490000  -0.3570000
  48.6570000  38.6920000  -0.8830000  48.2310000  36.9750000  -1.0740000
  47.6710000  37.8600000   0.3380000  50.8530000  37.0210000  -0.6570000
  51.7590000  36.6700000  -0.1630000  50.5000000  36.2390000  -1.3300000
  51.0900000  37.9120000  -1.2390000  49.1140000  38.9350000   2.2460000
  48.7310000  40.0990000   2.1180000  48.5940000  38.1030000   3.1600000
  48.9780000  37.1710000   3.2150000  47.4820000  38.4470000   4.0650000
  46.6010000  38.6600000   3.4600000  47.1760000  37.2180000   4.9440000
  46.9190000  36.3810000   4.2950000  48.0760000  36.9410000   5.4920000
  46.0440000  37.4020000   5.9700000  45.9240000  36.4560000   6.4970000
  46.3390000  38.1550000   6.7000000  44.6940000  37.8000000   5.3520000
  44.7520000  38.8190000   4.9690000  44.4570000  37.1200000   4.5330000
  43.5960000  37.7130000   6.4230000  43.5270000  36.6790000   6.7620000
  43.8890000  38.3210000   7.2780000  42.2760000  38.1670000   5.9060000
  42.0210000  37.6850000   5.0560000  41.5510000  38.0040000   6.5900000
  42.2790000  39.1610000   5.7240000  47.7750000  39.7060000   4.8940000
  46.9580000  40.6260000   4.9170000  48.9540000  39.7850000   5.5070000
  49.5680000  38.9850000   5.4450000  49.4090000  40.9230000   6.3040000
  48.6970000  41.0800000   7.1130000  50.7640000  40.5690000   6.9280000
  51.5040000  40.3940000   6.1480000  51.1010000  41.3900000   7.5610000
  50.6670000  39.6710000   7.5400000  49.4900000  42.2350000   5.5010000
  49.1550000  43.2950000   6.0330000  49.9130000  42.1810000   4.2290000
  50.2370000  41.2930000   3.8750000  49.9660000  43.3510000   3.3380000
  50.4000000  44.1810000   3.8950000  50.9140000  43.0400000   2.1670000
  51.8750000  42.7290000   2.5750000  50.5090000  42.2170000   1.5770000
  51.1390000  44.2560000   1.2540000  50.2120000  44.4860000   0.7290000
  51.4310000  45.1180000   1.8540000  52.2390000  43.9630000   0.2280000
  53.1980000  43.8780000   0.7380000  52.0170000  43.0130000  -0.2580000
  52.3100000  45.0730000  -0.8280000  51.3110000  45.2320000  -1.2350000
  52.6260000  45.9990000  -0.3470000  53.2450000  44.7180000  -1.9280000
  52.9540000  43.8660000  -2.3870000  53.2750000  45.4440000  -2.6290000
  54.1850000  44.5810000  -1.5860000  48.5820000  43.8260000   2.8730000
  48.3290000  45.0310000   2.8640000  47.6840000  42.9100000   2.4910000
  47.9720000  41.9420000   2.4840000  46.3380000  43.2600000   1.9780000
  46.4580000  44.1540000   1.3660000  45.7610000  42.1960000   1.0220000
  44.8600000  42.6190000   0.5780000  46.7240000  41.8960000  -0.1340000
  47.6470000  41.4460000   0.2310000  46.2510000  41.2030000  -0.8290000
  46.9590000  42.8180000  -0.6660000  45.3630000  40.8860000   1.7100000
  44.5770000  41.0630000   2.4440000  44.9810000  40.1850000   0.9670000
  46.2290000  40.4460000   2.2040000  45.3230000  43.6570000   3.0600000
  44.4720000  44.5110000   2.8050000  45.3820000  43.0690000   4.2630000
  46.0780000  42.3540000   4.4180000  44.3790000  43.2960000   5.3180000
  43.4230000  43.0040000   4.8820000  44.6150000  42.3410000   6.5070000
  44.7120000  41.3220000   6.1330000  45.5540000  42.5940000   7.0000000
  43.4940000  42.3690000   7.5650000  43.8200000  41.7870000   8.4270000
  43.3350000  43.3900000   7.9090000  42.1670000  41.7760000   7.0850000
  42.1030000  40.9520000   6.1820000  41.0540000  42.1350000   7.6870000
  40.1890000  41.7170000   7.3780000  41.0740000  42.8000000   8.4480000
  44.2030000  44.7770000   5.7400000  43.0550000  45.2080000   5.8500000
  45.2620000  45.5960000   5.9340000  46.6610000  45.2160000   6.0530000
  47.1310000  45.2530000   5.0700000  46.7870000  44.2280000   6.4940000
  47.2910000  46.2650000   6.9620000  48.3620000  46.3610000   6.7870000
  47.0870000  46.0190000   8.0040000  46.5330000  47.5280000   6.5680000
  46.9840000  47.9490000   5.6700000  46.5330000  48.2640000   7.3730000
  45.1170000  47.0180000   6.2700000  44.5200000  47.0990000   7.1790000
  44.4480000  47.8490000   5.1630000  43.6410000  48.7320000   5.4490000
  44.7550000  47.5560000   3.8940000  45.4310000  46.8240000   3.7280000
  44.1160000  48.1730000   2.7250000  44.2030000  49.2560000   2.8110000
  44.9010000  47.7390000   1.4770000  45.8880000  48.1980000   1.5150000
  45.0540000  46.6600000   1.5140000  44.2710000  48.0790000   0.1420000
  43.8230000  47.0430000  -0.7010000  43.9070000  46.0130000  -0.3880000
  43.2680000  47.3490000  -1.9560000  42.9100000  46.5590000  -2.5990000
  43.1610000  48.6900000  -2.3740000  42.5910000  48.9720000  -3.5730000
  42.1660000  48.1890000  -3.9330000  43.6060000  49.7290000  -1.5300000
  43.5180000  50.7560000  -1.8530000  44.1630000  49.4210000  -0.2730000
  44.5130000  50.2150000   0.3710000  42.6090000  47.8480000   2.6420000
  41.7850000  48.7430000   2.4320000  42.2380000  46.5840000   2.8790000
  42.9680000  45.8960000   3.0030000  40.8480000  46.1470000   3.0580000
  40.2890000  46.3980000   2.1560000  40.8450000  44.6140000   3.2000000
  41.1280000  44.1880000   2.2370000  41.6040000  44.3260000   3.9280000
  39.5130000  43.9870000   3.6500000  39.2460000  44.3630000   4.6370000
  38.3730000  44.2740000   2.6810000  38.6280000  43.9040000   1.6880000
  37.4660000  43.7810000   3.0330000  38.1840000  45.3460000   2.6250000
  39.6650000  42.4700000   3.7400000  40.4480000  42.2190000   4.4550000
  38.7250000  42.0300000   4.0730000  39.9210000  42.0570000   2.7640000
  40.1420000  46.8620000   4.2300000  39.0430000  47.3940000   4.0620000
  40.7700000  46.8980000   5.4090000  41.6570000  46.4210000   5.4900000
  40.2540000  47.5850000   6.6000000  39.3010000  47.1300000   6.8700000
  41.2290000  47.3780000   7.7680000  41.3730000  46.3090000   7.9220000
  42.1940000  47.8130000   7.5080000  40.7300000  47.9950000   9.0860000
  41.5530000  48.6070000   9.8090000  39.5350000  47.8360000   9.4310000
  39.9970000  49.0870000   6.3550000  38.9310000  49.6040000   6.6950000
  40.9510000  49.7870000   5.7290000  41.8180000  49.3200000   5.5050000
  40.7910000  51.1790000   5.2990000  40.6310000  51.7890000   6.1880000
  42.0680000  51.6850000   4.6100000  42.9020000  51.6100000   5.3080000
  42.2910000  51.0540000   3.7500000  41.9150000  53.1490000   4.1610000
  42.0730000  53.4470000   2.9530000  41.6140000  54.0220000   5.0080000
  39.5660000  51.3790000   4.3900000  38.7350000  52.2390000   4.6740000
  39.4130000  50.5800000   3.3260000  40.1190000  49.8830000   3.1390000
  38.2370000  50.6330000   2.4470000  38.1790000  51.6290000   2.0090000
  38.4050000  49.6300000   1.3000000  39.2780000  49.9220000   0.7160000
  38.6030000  48.6410000   1.7140000  37.2030000  49.5390000   0.3750000
  36.2590000  48.5070000   0.5370000  36.3970000  47.7640000   1.3100000
  35.1310000  48.4410000  -0.3000000  34.4040000  47.6530000  -0.1670000
  34.9440000  49.4050000  -1.3070000  34.0730000  49.3580000  -1.9430000
  35.8910000  50.4300000  -1.4800000  35.7540000  51.1660000  -2.2590000
  37.0160000  50.5000000  -0.6380000  37.7390000  51.2910000  -0.7730000
  36.9170000  50.4060000   3.2060000  35.9770000  51.1910000   3.0580000
  36.8570000  49.3780000   4.0590000  37.6660000  48.7780000   4.1310000
  35.7130000  49.0910000   4.9290000  34.8510000  48.8840000   4.2940000
  36.0190000  47.8160000   5.7350000  36.1930000  47.0020000   5.0310000
  36.9290000  47.9660000   6.3160000  34.8910000  47.4050000   6.6940000
  34.7430000  48.1890000   7.4370000  33.9670000  47.2930000   6.1280000
  35.1750000  46.0930000   7.4340000  36.1540000  45.3920000   7.2110000
  34.3210000  45.7110000   8.3620000  34.5080000  44.8490000   8.8550000
  33.5100000  46.2710000   8.5800000  35.3390000  50.2950000   5.8170000
  34.1760000  50.7030000   5.8480000  36.3200000  50.9050000   6.4990000
  37.2470000  50.5070000   6.4430000  36.1410000  52.1270000   7.3040000
  35.3720000  51.9410000   8.0530000  37.4610000  52.4350000   8.0370000
  37.7540000  51.5560000   8.6110000  38.2440000  52.6410000   7.3070000
  37.3430000  53.6280000   8.9970000  37.0860000  54.5270000   8.4370000
  36.5570000  53.4270000   9.7250000  38.6670000  53.8670000   9.7350000
  38.9260000  52.9770000  10.3090000  39.4550000  54.0620000   9.0070000
  38.5360000  55.0670000  10.6810000  38.2570000  55.9450000  10.0980000
  37.7320000  54.8680000  11.3900000  39.8040000  55.3280000  11.4130000
  40.5620000  55.5330000  10.7780000  39.7070000  56.1180000  12.0340000
  40.0750000  54.5330000  11.9750000  35.6590000  53.3150000   6.4620000
  34.6900000  53.9760000   6.8280000  36.2890000  53.5570000   5.3080000
  37.0830000  52.9710000   5.0910000  35.9500000  54.6410000   4.3680000
  36.0650000  55.5940000   4.8850000  36.9440000  54.5900000   3.1930000
  37.9240000  54.3210000   3.5880000  36.6350000  53.8230000   2.4830000
  37.1100000  55.9310000   2.4670000  36.1310000  56.3180000   2.1860000
  37.5770000  56.6440000   3.1460000  37.9710000  55.7990000   1.1950000
  37.3550000  55.3240000   0.4310000  38.2200000  56.7970000   0.8330000
  39.2590000  54.9600000   1.3310000  38.9870000  53.9540000   1.6480000
  39.7110000  54.8710000   0.3430000  40.2540000  55.5340000   2.2780000
  39.8580000  55.7160000   3.1890000  41.0140000  54.8840000   2.4210000
  40.6470000  56.3950000   1.9250000  34.4960000  54.5490000   3.8930000
  33.7640000  55.5370000   3.9290000  34.0570000  53.3450000   3.5190000
  34.7230000  52.5870000   3.4830000  32.6610000  53.0560000   3.1890000
  32.3400000  53.7660000   2.4280000  32.5490000  51.6540000   2.5850000
  33.0980000  51.6310000   1.6440000  33.0240000  50.9430000   3.2620000
  31.1460000  51.1930000   2.3250000  30.5930000  50.0640000   2.8220000
  31.1020000  49.3600000   3.4630000  29.2970000  49.9380000   2.3640000
  28.7090000  49.1450000   2.5790000  28.9440000  50.9870000   1.5430000
  27.7760000  51.2920000   0.8300000  26.9250000  50.6270000   0.8660000
  27.7260000  52.4730000   0.0710000  26.8320000  52.7240000  -0.4800000
  28.8470000  53.3200000   0.0190000  28.8060000  54.2240000  -0.5710000
  30.0240000  52.9930000   0.7200000  30.8810000  53.6480000   0.6560000
  30.1060000  51.8170000   1.5040000  31.7090000  53.2360000   4.3810000
  30.6330000  53.8060000   4.2110000  32.0940000  52.8210000   5.5950000
  32.9610000  52.3110000   5.6860000  31.2860000  53.0600000   6.7970000
  30.3100000  52.6120000   6.6100000  31.9030000  52.3620000   8.0210000
  32.1790000  51.3410000   7.7560000  32.8130000  52.8860000   8.3160000
  30.9440000  52.3340000   9.2290000  31.4620000  51.8660000  10.0660000
  30.6860000  53.3510000   9.5220000  29.6620000  51.5450000   8.9650000
  28.5450000  52.0300000   9.1090000  29.7620000  50.3140000   8.5140000
  28.9130000  49.8090000   8.3020000  30.6700000  49.8850000   8.3970000
  31.0440000  54.5590000   7.0590000  29.9100000  54.9560000   7.3190000
  32.0800000  55.3980000   6.9640000  32.9960000  55.0070000   6.7930000
  31.9510000  56.8620000   7.0570000  31.4700000  57.1060000   8.0040000
  33.3370000  57.5290000   7.0330000  33.8700000  57.2160000   6.1350000
  33.2040000  58.6090000   6.9750000  34.2090000  57.2090000   8.2590000
  34.4360000  56.1430000   8.2620000  35.1550000  57.7400000   8.1530000
  33.5620000  57.6020000   9.6040000  32.8810000  58.6530000   9.6860000
  33.7550000  56.8690000  10.6050000  31.0480000  57.4570000   5.9570000
  30.1660000  58.2670000   6.2500000  31.2320000  57.0460000   4.6970000
  31.9940000  56.4110000   4.5050000  30.3470000  57.4190000   3.5830000
  30.3860000  58.5020000   3.4690000  30.8620000  56.7800000   2.2800000
  31.8730000  57.1390000   2.0860000  30.9180000  55.7000000   2.4150000
  29.9900000  57.0500000   1.0440000  30.4590000  56.5630000   0.1890000
  29.0200000  56.5770000   1.1910000  29.7980000  58.5470000   0.7190000
  30.6900000  59.3760000   1.0240000  28.7590000  58.9020000   0.1110000
  28.8750000  57.0510000   3.8530000  27.9790000  57.8830000   3.6880000
  28.6180000  55.8160000   4.2920000  29.3900000  55.1700000   4.3790000
  27.2870000  55.3510000   4.6780000  26.6200000  55.5230000   3.8330000
  27.3280000  53.8400000   4.9480000  27.7340000  53.3290000   4.0740000
  27.9940000  53.6420000   5.7890000  25.9470000  53.2560000   5.2750000
  26.0620000  52.1810000   5.4150000  25.6100000  53.6770000   6.2230000
  24.6320000  53.5310000   4.0500000  25.4480000  52.9030000   2.5590000
  25.9650000  51.9700000   2.7850000  24.7090000  52.7190000   1.7800000
  26.1750000  53.6320000   2.2040000  26.7110000  56.1300000   5.8700000
  25.5400000  56.4940000   5.8540000  27.5120000  56.4380000   6.8920000
  28.4620000  56.0950000   6.8810000  27.0860000  57.2600000   8.0300000
  26.2180000  56.7730000   8.4740000  28.2030000  57.3100000   9.0860000
  28.4940000  56.2920000   9.3450000  29.0750000  57.8060000   8.6580000
  27.8170000  58.0520000  10.3750000  28.6740000  58.0290000  11.0480000
  27.6240000  59.0970000  10.1320000  26.5950000  57.4530000  11.1060000
  25.9400000  58.1910000  11.8820000  26.2940000  56.2460000  10.9320000
  26.6230000  58.6640000   7.6040000  25.5760000  59.1350000   8.0580000
  27.3540000  59.3130000   6.6890000  28.2130000  58.8880000   6.3720000
  26.9030000  60.5450000   6.0360000  26.6920000  61.2760000   6.8170000
  28.0410000  61.0990000   5.1600000  28.8960000  61.3220000   5.7990000
  28.3470000  60.3270000   4.4540000  27.6760000  62.3600000   4.3550000
  26.8380000  62.1430000   3.6920000  27.3070000  63.5420000   5.2530000
  28.1230000  63.7560000   5.9440000  27.1150000  64.4230000   4.6400000
  26.4030000  63.3180000   5.8180000  28.8660000  62.7750000   3.4920000
  29.1340000  61.9590000   2.8210000  28.6020000  63.6470000   2.8930000
  29.7220000  63.0160000   4.1230000  25.5910000  60.3370000   5.2530000
  24.6810000  61.1610000   5.3560000  25.4560000  59.2340000   4.5060000
  26.2400000  58.6030000   4.4290000  24.2170000  58.9100000   3.7880000
  23.9950000  59.7510000   3.1320000  24.4020000  57.6790000   2.8900000
  25.3050000  57.8070000   2.2920000  24.5340000  56.7870000   3.5030000
  23.2250000  57.4670000   1.9570000  22.1160000  56.7010000   2.3680000
  22.1080000  56.2420000   3.3460000  20.9960000  56.5670000   1.5210000
  20.1410000  55.9910000   1.8430000  20.9850000  57.2030000   0.2580000
  19.9110000  57.0780000  -0.5670000  19.1620000  56.6710000  -0.1260000
  22.1030000  57.9590000  -0.1530000  22.1000000  58.4370000  -1.1210000
  23.2170000  58.0930000   0.6960000  24.0630000  58.6870000   0.3820000
  23.0040000  58.7480000   4.7230000  21.9510000  59.3200000   4.4460000
  23.1480000  58.0410000   5.8570000  24.0360000  57.5830000   6.0000000
  22.1010000  57.8890000   6.8940000  21.2560000  57.3420000   6.4740000
  22.6400000  57.1060000   8.1070000  23.5500000  57.5910000   8.4610000
  21.9060000  57.1600000   8.9110000  22.9310000  55.6200000   7.8400000
  21.9960000  55.0880000   7.6670000  23.5580000  55.5120000   6.9550000
  23.6560000  55.0140000   9.0500000  24.4840000  55.6710000   9.3150000
  22.9690000  54.9780000   9.8960000  24.1580000  53.6540000   8.7680000
  23.4860000  53.0010000   8.3890000  25.3900000  53.2030000   8.9400000
  25.7130000  51.9960000   8.5800000  25.0170000  51.3570000   8.2230000
  26.6680000  51.7010000   8.7220000  26.3560000  53.9030000   9.4550000
  26.1670000  54.7880000   9.9040000  27.2750000  53.4900000   9.5210000
  21.5580000  59.2470000   7.3590000  20.3440000  59.4350000   7.4390000
  22.4550000  60.2010000   7.6250000  23.4320000  59.9550000   7.5620000
  22.1040000  61.5880000   7.9540000  21.4160000  61.5690000   8.7990000
  23.3750000  62.3290000   8.4060000  23.8140000  61.7800000   9.2400000
  24.0970000  62.3480000   7.5900000  23.1010000  63.7730000   8.8580000
  22.7340000  64.3580000   8.0150000  22.3280000  63.7610000   9.6260000
  24.3340000  64.4800000   9.4270000  25.4640000  64.0040000   9.3830000
  24.1680000  65.6610000   9.9860000  24.9770000  66.1330000  10.3640000
  23.2490000  66.0770000  10.0360000  21.3810000  62.3040000   6.7940000
  20.3410000  62.9310000   7.0070000  21.9130000  62.1990000   5.5670000
  22.7790000  61.6860000   5.4800000  21.3850000  62.8610000   4.3580000
  21.3130000  63.9290000   4.5610000  22.3820000  62.6550000   3.2000000
  23.3950000  62.8440000   3.5550000  22.3260000  61.6230000   2.8560000
  22.1050000  63.6060000   2.0230000  21.0520000  63.5580000   1.7460000
  22.3390000  64.6250000   2.3310000  22.9360000  63.2380000   0.7880000
  23.9950000  63.2090000   1.0460000  22.6260000  62.2550000   0.4350000
  22.7030000  64.2840000  -0.3100000  21.6340000  64.4860000  -0.3810000
  23.2000000  65.2100000  -0.0220000  23.2010000  63.8200000  -1.6280000
  22.6460000  63.0420000  -1.9550000  23.1220000  64.5480000  -2.3230000
  24.1680000  63.5300000  -1.5860000  19.9780000  62.3890000   3.9530000
  19.1390000  63.2110000   3.5850000  19.7310000  61.0760000   3.9800000
  20.4930000  60.4730000   4.2560000  18.5070000  60.4450000   3.4450000
  18.2910000  60.9320000   2.4940000  18.7680000  58.9570000   3.1240000
  19.7240000  58.8910000   2.6060000  18.8310000  58.0550000   4.3630000
  17.8530000  57.9800000   4.8390000  19.1570000  57.0570000   4.0710000
  19.5490000  58.4560000   5.0790000  17.7000000  58.3910000   2.1860000
  17.6650000  58.9840000   1.2720000  17.9430000  57.3610000   1.9260000
  16.7200000  58.4090000   2.6630000  17.2560000  60.6440000   4.3110000
  16.1490000  60.7340000   3.7830000  17.4050000  60.7080000   5.6380000
  18.3400000  60.6420000   6.0150000  16.2800000  60.7260000   6.5850000
  15.7310000  59.7990000   6.4210000  16.8010000  60.6490000   8.0310000
  17.3450000  59.7090000   8.1280000  17.5050000  61.4560000   8.2350000
  15.6790000  60.6830000   9.0780000  15.5000000  61.7140000   9.3840000
  14.7580000  60.3060000   8.6320000  16.0170000  59.8000000  10.2910000
  15.7250000  58.5780000  10.2300000  16.5500000  60.3170000  11.3020000
  15.2350000  61.8420000   6.3380000  14.0480000  61.5140000   6.2970000
  15.6070000  63.1190000   6.1030000  16.9230000  63.7030000   6.3100000
  17.5430000  63.5190000   5.4320000  17.4120000  63.3160000   7.2040000
  16.6870000  65.2010000   6.4670000  17.5580000  65.7810000   6.1600000
  16.4160000  65.4240000   7.4990000  15.4880000  65.4450000   5.5550000
  15.8320000  65.5340000   4.5250000  14.9330000  66.3350000   5.8500000
  14.6540000  64.1710000   5.7360000  13.9730000  64.3190000   6.5740000
  13.8200000  63.8530000   4.4830000  12.6070000  64.0680000   4.4820000
  14.4410000  63.3130000   3.4240000  15.4320000  63.1300000   3.4920000
  13.7370000  62.8870000   2.2070000  13.1260000  63.7250000   1.8700000
  14.7660000  62.5780000   1.1010000  15.3490000  63.4790000   0.9100000
  15.4490000  61.8100000   1.4640000  14.1590000  62.0860000  -0.2280000
  13.6180000  61.1550000  -0.0560000  13.2050000  63.1020000  -0.8590000
  13.7160000  64.0530000  -1.0080000  12.8520000  62.7280000  -1.8200000
  12.3380000  63.2530000  -0.2170000  15.2780000  61.8090000  -1.2310000
  15.9520000  61.0500000  -0.8350000  14.8540000  61.4480000  -2.1690000
  15.8440000  62.7200000  -1.4240000  12.7770000  61.7130000   2.4710000
  11.6320000  61.7400000   2.0130000  13.2100000  60.7110000   3.2530000
  14.1670000  60.7490000   3.5740000  12.3520000  59.5960000   3.7000000
  11.9660000  59.0880000   2.8160000  13.1750000  58.5870000   4.5240000
  14.1120000  58.3750000   4.0100000  13.4080000  59.0200000   5.4970000
  12.4150000  57.2600000   4.7120000  11.3830000  57.4510000   5.0090000
  12.3970000  56.7340000   3.7580000  13.0600000  56.3550000   5.7700000
  12.6130000  55.3640000   5.6850000  14.1270000  56.2600000   5.5670000
  12.7980000  56.8590000   7.1360000  11.8280000  56.8940000   7.4160000
  13.6690000  57.2630000   8.0440000  13.2800000  57.7190000   9.1940000
  12.3030000  57.7780000   9.4410000  14.0000000  58.0270000   9.8320000
  14.9560000  57.2510000   7.8720000  15.3620000  56.8510000   7.0380000
  15.5240000  57.5760000   8.6420000  11.1390000  60.1050000   4.4850000
  10.0130000  59.7130000   4.1900000  11.3600000  61.0020000   5.4460000
  12.3190000  61.2520000   5.6440000  10.3100000  61.6490000   6.2310000
   9.7460000  60.8740000   6.7500000  10.9620000  62.5410000   7.2940000
  11.5350000  63.3390000   6.8220000  10.1870000  62.9840000   7.9210000
  11.6250000  61.9460000   7.9220000   9.3140000  62.4300000   5.3530000
   8.1080000  62.2510000   5.4990000   9.7940000  63.2560000   4.4180000
  10.7930000  63.3980000   4.3770000   8.9600000  64.0070000   3.4670000
   8.2980000  64.6560000   4.0410000   9.8620000  64.9110000   2.6090000
  10.4460000  65.5380000   3.2830000  10.5460000  64.2950000   2.0260000
   9.0660000  65.8120000   1.6540000   8.5130000  65.1830000   0.9560000
   8.3430000  66.3840000   2.2340000   9.9600000  66.7910000   0.8630000
  10.9480000  67.3340000   1.4170000   9.6540000  67.0530000  -0.3260000
   8.0530000  63.0960000   2.6150000   6.8480000  63.3400000   2.5090000
   8.6130000  62.0220000   2.0420000   9.6100000  61.8970000   2.1420000
   7.8500000  60.9630000   1.3700000   7.3080000  61.4040000   0.5340000
   8.8380000  59.9160000   0.8110000   9.3590000  60.3460000  -0.0440000
   9.5850000  59.7030000   1.5760000   8.2020000  58.5730000   0.3990000
   7.6910000  58.1300000   1.2530000   7.2020000  58.7200000  -0.7460000
   7.7070000  59.0840000  -1.6400000   6.7480000  57.7500000  -0.9520000
   6.4040000  59.4110000  -0.4740000   9.2950000  57.5970000  -0.0240000
  10.0110000  57.4800000   0.7900000   8.8540000  56.6220000  -0.2290000
   9.8100000  57.9660000  -0.9110000   6.8000000  60.3290000   2.3000000
   5.6230000  60.2620000   1.9490000   7.2200000  59.8560000   3.4740000
   8.2030000  59.9390000   3.6920000   6.3690000  59.1540000   4.4390000
   5.9360000  58.2900000   3.9340000   7.2690000  58.6370000   5.5720000
   8.0630000  58.0490000   5.1120000   7.7260000  59.4750000   6.0960000
   6.5510000  57.7400000   6.5870000   6.0230000  58.3540000   7.3160000
   5.8180000  57.1220000   6.0690000   7.5490000  56.8320000   7.3100000
   8.5050000  57.2770000   7.9330000   7.3850000  55.5270000   7.2430000
   8.0570000  54.9420000   7.7190000   6.6150000  55.1250000   6.7280000
   5.1950000  60.0170000   4.9340000   4.0600000  59.5460000   5.0040000
   5.4490000  61.2970000   5.2150000   6.4090000  61.6070000   5.1640000
   4.4380000  62.3140000   5.5170000   3.9110000  62.0100000   6.4220000
   5.1510000  63.6540000   5.7870000   5.9450000  63.4970000   6.5170000
   5.6180000  63.9960000   4.8640000   4.2330000  64.7720000   6.2980000
   4.8190000  65.6880000   6.3750000   3.4470000  64.9450000   5.5630000
   3.6050000  64.4730000   7.6720000   2.5040000  64.9920000   7.9660000
   4.1670000  63.6930000   8.4770000   3.3900000  62.4360000   4.3970000
   2.1900000  62.3340000   4.6590000   3.8350000  62.6030000   3.1440000
   4.8320000  62.6810000   2.9990000   2.9640000  62.6490000   1.9620000
   2.2740000  63.4860000   2.0590000   3.5740000  62.8140000   1.0740000
   2.1470000  61.3690000   1.7500000   0.9510000  61.4390000   1.4730000
   2.7610000  60.1960000   1.9260000   3.7550000  60.2070000   2.1070000
   2.0910000  58.8960000   1.8560000   1.6190000  58.8070000   0.8780000
   3.1500000  57.7940000   1.9700000   3.5970000  57.8020000   2.9640000
   2.6850000  56.8240000   1.7920000   3.9310000  57.9490000   1.2260000
   0.9770000  58.7470000   2.9090000  -0.1550000  58.3980000   2.5640000
   1.2570000  59.0800000   4.1810000   2.2080000  59.3380000   4.4060000
   0.2390000  59.1140000   5.2490000  -0.2110000  58.1230000   5.3150000
   0.8830000  59.4500000   6.6060000   1.8240000  58.9090000   6.7070000
   1.1010000  60.5170000   6.6470000  -0.0470000  59.0510000   7.7700000
  -1.0290000  59.5050000   7.6360000  -0.1750000  57.9690000   7.7570000
   0.4900000  59.4580000   9.1490000  -0.0950000  58.9420000   9.9100000
   1.5240000  59.1280000   9.2550000   0.3520000  60.9140000   9.3650000
  -0.5670000  61.2410000   9.6270000   1.2760000  61.8420000   9.1960000
   0.9740000  63.1010000   9.2630000   0.0300000  63.4020000   9.4580000
   1.6530000  63.7800000   8.9490000   2.5150000  61.5560000   8.9350000
   2.8200000  60.5930000   8.9290000   3.1800000  62.3130000   8.8600000
  -0.8880000  60.0930000   4.9160000  -2.0550000  59.7360000   5.0350000
  -0.5490000  61.2960000   4.4440000   0.4330000  61.5300000   4.4130000
  -1.5200000  62.3080000   4.0080000  -2.1630000  62.5290000   4.8590000
  -0.7860000  63.6100000   3.6380000  -0.0830000  63.8630000   4.4310000
  -0.2240000  63.4570000   2.7170000  -1.7510000  64.7930000   3.4580000
  -2.5310000  64.5370000   2.7410000  -2.2270000  65.0110000   4.4140000
  -1.0370000  66.0400000   2.9390000  -0.4740000  66.0530000   1.8520000
  -1.0500000  67.1390000   3.6640000  -0.5690000  67.9520000   3.3070000
  -1.5210000  67.1610000   4.5570000  -2.4320000  61.7980000   2.8750000
  -3.6460000  61.9480000   2.9670000  -1.8770000  61.1400000   1.8460000
  -0.8680000  61.0910000   1.8180000  -2.6300000  60.5130000   0.7370000
  -3.2180000  61.2830000   0.2380000  -1.6100000  59.9350000  -0.2750000
  -1.0060000  60.7680000  -0.6350000  -0.9270000  59.2550000   0.2330000
  -2.1980000  59.2210000  -1.5120000  -3.1180000  59.7200000  -1.8150000
  -1.4750000  59.3270000  -2.3210000  -2.4570000  57.7150000  -1.3080000
  -1.5730000  57.2670000  -0.8540000  -3.2950000  57.5570000  -0.6300000
  -2.7290000  56.9690000  -2.6290000  -1.9000000  57.1500000  -3.3130000
  -2.7340000  55.9010000  -2.4110000  -4.0280000  57.3560000  -3.2620000
  -4.0380000  58.3230000  -3.5530000  -4.2050000  56.7990000  -4.0860000
  -4.8030000  57.2090000  -2.6310000  -3.6350000  59.4720000   1.2400000
  -4.8080000  59.5140000   0.8730000  -3.1800000  58.5560000   2.0940000
  -2.1980000  58.5830000   2.3290000  -4.0210000  57.5320000   2.7260000
  -4.5330000  56.9680000   1.9460000  -3.1090000  56.5680000   3.5100000
  -2.4650000  57.1560000   4.1640000  -3.7210000  55.9290000   4.1470000
  -2.2360000  55.6690000   2.6080000  -1.8100000  56.2610000   1.7990000
  -1.0830000  55.0660000   3.4070000  -1.4680000  54.4550000   4.2240000
  -0.4670000  54.4470000   2.7550000  -0.4640000  55.8670000   3.8120000
  -3.0460000  54.5220000   2.0010000  -3.8540000  54.9120000   1.3810000
  -2.3980000  53.9080000   1.3750000  -3.4680000  53.9010000   2.7910000
  -5.1280000  58.1470000   3.6060000  -6.3010000  57.8040000   3.4590000
  -4.7790000  59.0920000   4.4830000  -3.8000000  59.3220000   4.5760000
  -5.7290000  59.7660000   5.3710000  -6.3100000  58.9940000   5.8760000
  -4.9630000  60.5320000   6.4560000  -4.3140000  59.8370000   6.9890000
  -4.3360000  61.2890000   5.9850000  -5.8720000  61.1990000   7.4610000
  -6.8030000  60.5710000   8.2590000  -6.9960000  59.5800000   8.2990000
  -7.4790000  61.5130000   8.9370000  -8.2810000  61.3110000   9.6310000
  -7.0240000  62.7390000   8.6180000  -6.0100000  62.5460000   7.6680000
  -5.4480000  63.3210000   7.1680000  -6.7380000  60.6680000   4.6320000
  -7.9010000  60.7310000   5.0220000  -6.3440000  61.3340000   3.5420000
  -5.3660000  61.3170000   3.2910000  -7.2660000  62.0660000   2.6630000
  -7.7830000  62.8180000   3.2600000  -6.4800000  62.8040000   1.5640000
  -5.8330000  63.5370000   2.0460000  -5.8640000  62.0930000   1.0140000
  -7.4150000  63.5230000   0.5790000  -7.9740000  62.7730000   0.0190000
  -8.1280000  64.1140000   1.1530000  -6.7050000  64.4520000  -0.4270000
  -5.4660000  64.6420000  -0.3690000  -7.4260000  65.0160000  -1.2880000
  -8.3510000  61.1430000   2.0820000  -9.5420000  61.4460000   2.1920000
  -7.9480000  60.0010000   1.5060000  -6.9560000  59.8230000   1.4410000
  -8.8710000  58.9630000   1.0360000  -9.5010000  59.3990000   0.2610000
  -8.0590000  57.8130000   0.4040000  -7.5610000  58.1930000  -0.4890000
  -7.2840000  57.5070000   1.1060000  -8.8730000  56.5560000   0.0330000
  -9.3360000  56.1470000   0.9310000  -9.9620000  56.8340000  -1.0030000
  -9.5290000  57.2650000  -1.9060000 -10.4730000  55.9050000  -1.2550000
 -10.7000000  57.5220000  -0.5890000  -7.9360000  55.4960000  -0.5430000
  -7.1640000  55.2490000   0.1870000  -8.4980000  54.5910000  -0.7730000
  -7.4660000  55.8680000  -1.4530000  -9.8080000  58.4910000   2.1630000
 -11.0230000  58.4770000   1.9740000  -9.2560000  58.1520000   3.3350000
  -8.2490000  58.1740000   3.4030000 -10.0200000  57.7770000   4.5320000
 -10.5320000  56.8360000   4.3330000  -9.0360000  57.5580000   5.6960000
  -8.2500000  56.8700000   5.3840000  -8.5640000  58.5130000   5.9280000
  -9.6830000  57.0180000   6.9800000 -10.5560000  57.6170000   7.2410000
 -10.0140000  55.9950000   6.8020000  -8.7280000  57.0480000   8.1770000
  -7.8340000  57.8780000   8.2940000  -8.8880000  56.1540000   9.1300000
  -8.2540000  56.1780000   9.9150000  -9.6260000  55.4670000   9.0740000
 -11.0880000  58.8280000   4.8980000 -12.2770000  58.5190000   4.9510000
 -10.6690000  60.0750000   5.1260000  -9.6800000  60.2630000   5.0420000
 -11.5280000  61.1930000   5.5260000 -11.9980000  60.9300000   6.4740000
 -10.6590000  62.4440000   5.7510000  -9.9350000  62.2320000   6.5380000
 -10.1020000  62.6530000   4.8380000 -11.4380000  63.7150000   6.1280000
 -10.7170000  64.5170000   6.2860000 -12.0580000  64.0040000   5.2790000
 -12.3170000  63.5810000   7.3910000 -13.3110000  64.3390000   7.5110000
 -12.0140000  62.7600000   8.2900000 -12.6640000  61.4630000   4.5270000
 -13.8190000  61.6050000   4.9330000 -12.3520000  61.5210000   3.2240000
 -11.3850000  61.4000000   2.9600000 -13.3420000  61.7690000   2.1630000
 -13.9660000  62.6100000   2.4670000 -12.6230000  62.1680000   0.8620000
 -11.8510000  61.4340000   0.6290000 -13.3480000  62.1840000   0.0490000
 -11.9960000  63.5690000   0.9740000 -12.7890000  64.2880000   1.1790000
 -11.2870000  63.5920000   1.8020000 -11.2690000  63.9800000  -0.3130000
 -10.4080000  63.3290000  -0.4660000 -11.9470000  63.8820000  -1.1600000
 -10.8120000  65.4410000  -0.1910000 -11.6960000  66.0640000  -0.0540000
 -10.1930000  65.5450000   0.7000000 -10.0560000  65.8990000  -1.3860000
 -10.5600000  65.7200000  -2.2430000  -9.8770000  66.8920000  -1.3390000
  -9.1510000  65.4530000  -1.4440000 -14.3130000  60.5960000   1.9570000
 -15.4710000  60.8220000   1.6030000 -13.8710000  59.3570000   2.1920000
 -12.8960000  59.2440000   2.4310000 -14.7040000  58.1490000   2.1410000
 -15.2600000  58.1610000   1.2040000 -13.7660000  56.9280000   2.1270000
 -13.1470000  56.9710000   1.2310000 -13.1050000  57.0010000   2.9910000
 -14.4550000  55.5540000   2.1870000 -15.0800000  55.4950000   3.0780000
 -15.3180000  55.2900000   0.9520000 -14.7050000  55.3160000   0.0510000
 -15.7930000  54.3120000   1.0330000 -16.1060000  56.0390000   0.8740000
 -13.3810000  54.4720000   2.3000000 -12.7260000  54.6900000   3.1430000
 -13.8510000  53.5050000   2.4760000 -12.7880000  54.4320000   1.3860000
 -15.7420000  58.0560000   3.2800000 -16.8790000  57.6490000   3.0290000
 -15.3680000  58.4090000   4.5170000 -14.4070000  58.6820000   4.6630000
 -16.1800000  58.1520000   5.7230000 -16.2230000  57.0690000   5.8410000
 -15.5080000  58.6890000   6.9960000 -15.3360000  59.7620000   6.9160000
 -16.1610000  58.5040000   7.8490000 -14.2740000  58.0350000   7.2150000
 -13.8660000  58.4110000   7.9980000 -17.6510000  58.6050000   5.6550000
 -18.5140000  57.7780000   5.9690000 -17.9920000  59.8450000   5.2330000
 -17.1080000  60.9550000   4.9070000 -16.8220000  60.8950000   3.8570000
 -16.2210000  60.9800000   5.5400000 -17.9320000  62.2160000   5.1460000
 -17.5780000  63.0510000   4.5420000 -17.9170000  62.4690000   6.2060000
 -19.3340000  61.7720000   4.7410000 -19.4370000  61.8560000   3.6590000
 -20.1020000  62.3640000   5.2400000 -19.3830000  60.3020000   5.1780000
 -19.8000000  60.2510000   6.1840000 -20.2570000  59.4600000   4.2410000
 -21.3560000  59.0570000   4.6240000 -19.7660000  59.1610000   3.0300000
 -18.8460000  59.5030000   2.7900000 -20.4730000  58.3320000   2.0490000
 -21.4550000  58.7770000   1.8910000 -19.7060000  58.3660000   0.7100000
 -19.6220000  59.4030000   0.3860000 -18.6980000  57.9870000   0.8780000
 -20.3460000  57.5430000  -0.4260000 -20.4140000  56.4970000  -0.1290000
 -21.7440000  58.0450000  -0.7900000 -21.7020000  59.0990000  -1.0660000
 -22.1370000  57.4680000  -1.6280000 -22.4230000  57.9190000   0.0530000
 -19.4730000  57.6330000  -1.6790000 -18.4890000  57.2130000  -1.4700000
 -19.9280000  57.0690000  -2.4930000 -19.3590000  58.6730000  -1.9850000
 -20.7030000  56.9000000   2.5610000 -21.8170000  56.3870000   2.4620000
 -19.6690000  56.2730000   3.1350000 -18.7840000  56.7560000   3.1790000
 -19.7620000  54.9290000   3.7200000 -20.0490000  54.2190000   2.9440000
 -18.7850000  54.6370000   4.1050000 -20.7780000  54.8380000   4.8660000
 -21.6410000  53.9590000   4.8680000 -20.6990000  55.7640000   5.8270000
 -19.9690000  56.4590000   5.7640000 -21.6340000  55.8620000   6.9550000
 -21.6250000  54.9130000   7.4900000 -21.1510000  56.9530000   7.9250000
 -20.1440000  56.6980000   8.2570000 -21.1140000  57.9090000   7.4030000
 -22.0560000  57.0820000   9.1580000 -23.0260000  57.4750000   8.8530000
 -22.2110000  56.0880000   9.5770000 -21.4560000  58.0070000  10.2360000
 -20.9330000  59.0990000   9.9050000 -21.5270000  57.6560000  11.4400000
 -23.0850000  56.1070000   6.5020000 -23.9990000  55.4030000   6.9400000
 -23.3000000  57.0860000   5.6160000 -22.5120000  57.6350000   5.3040000
 -24.6130000  57.3980000   5.0410000 -25.2810000  57.6770000   5.8560000
 -24.4940000  58.5970000   4.0820000 -24.1170000  59.4570000   4.6360000
 -23.7660000  58.3560000   3.3080000 -25.8050000  58.9940000   3.3840000
 -25.5940000  59.8390000   2.7290000 -26.1280000  58.1700000   2.7480000
 -26.9470000  59.3890000   4.3470000 -26.6830000  59.8490000   5.4850000
 -28.1310000  59.2810000   3.9450000 -25.2390000  56.1840000   4.3430000
 -26.3620000  55.7980000   4.6680000 -24.5160000  55.5630000   3.4020000
 -23.5900000  55.9100000   3.1950000 -25.0280000  54.4390000   2.6100000
 -25.9520000  54.7640000   2.1340000 -24.0330000  54.0510000   1.5070000
 -23.0270000  53.9880000   1.9230000 -24.2890000  53.0660000   1.1160000
 -24.0510000  55.0580000   0.3490000 -23.7600000  56.0370000   0.7330000
 -23.2970000  54.7510000  -0.3760000 -25.6420000  55.2450000  -0.5170000
 -25.9090000  53.5440000  -1.0920000 -26.1500000  52.8990000  -0.2470000
 -26.7400000  53.5260000  -1.7980000 -25.0130000  53.1720000  -1.5880000
 -25.4040000  53.2160000   3.4510000 -26.4080000  52.5690000   3.1460000
 -24.6540000  52.9200000   4.5220000 -23.8380000  53.4870000   4.7010000
 -24.9730000  51.8360000   5.4650000 -24.9780000  50.8940000   4.9160000
 -23.8760000  51.7710000   6.5420000 -22.9060000  51.8320000   6.0490000
 -23.9690000  52.6270000   7.2110000 -23.9160000  50.4720000   7.3640000
 -24.9210000  50.3130000   7.7550000 -23.6590000  49.6310000   6.7200000
 -22.9400000  50.5190000   8.5470000 -23.3080000  51.2610000   9.2560000
 -22.9460000  49.5480000   9.0440000 -21.5580000  50.8360000   8.1160000
 -21.2050000  50.3130000   7.3280000 -20.7390000  51.7360000   8.6360000
 -19.5860000  51.9770000   8.0810000 -19.3180000  51.5020000   7.2300000
 -18.9580000  52.6580000   8.4830000 -21.0420000  52.4170000   9.7040000
 -21.9120000  52.2230000  10.1780000 -20.3940000  53.0830000  10.1000000
 -26.3750000  52.0030000   6.0620000 -27.2130000  51.1170000   5.9170000
 -26.6620000  53.1500000   6.6790000 -25.9440000  53.8580000   6.7330000
 -27.9910000  53.4380000   7.2390000 -28.2650000  52.5990000   7.8770000
 -27.9460000  54.6920000   8.1220000 -27.1120000  54.6010000   8.8180000
 -27.7680000  55.5630000   7.4920000 -29.2390000  54.8900000   8.9410000
 -29.6100000  56.0610000   9.1930000 -29.8680000  53.8890000   9.3680000
 -29.0800000  53.5650000   6.1570000 -30.1770000  53.0330000   6.3140000
 -28.7780000  54.2270000   5.0310000 -27.8670000  54.6620000   4.9760000
 -29.7020000  54.4190000   3.8980000 -30.5810000  54.9490000   4.2640000
 -29.0000000  55.3040000   2.8540000 -28.5520000  56.1450000   3.3830000
 -28.2030000  54.7360000   2.3740000 -29.9190000  55.8930000   1.7750000
 -30.2890000  55.1030000   1.1220000 -30.7620000  56.3920000   2.2530000
 -29.1230000  56.9220000   0.9570000 -28.6680000  57.6340000   1.6450000
 -28.3110000  56.4220000   0.4290000 -29.9860000  57.6830000   0.0300000
 -30.5400000  58.4160000   0.4490000 -30.0610000  57.5830000  -1.2840000
 -30.7660000  58.4400000  -1.9630000 -31.2680000  59.1740000  -1.4830000
 -30.7960000  58.4030000  -2.9720000 -29.4270000  56.6600000  -1.9480000
 -28.8730000  55.9890000  -1.4350000 -29.5140000  56.5920000  -2.9520000
 -30.2000000  53.0860000   3.3200000 -31.3970000  52.9280000   3.0770000
 -29.3040000  52.1100000   3.1550000 -28.3330000  52.3180000   3.3410000
 -29.6520000  50.7380000   2.7900000 -30.3250000  50.7720000   1.9330000
 -28.3780000  50.0130000   2.3570000 -27.6600000  50.0050000   3.1770000
 -28.6220000  48.9900000   2.0730000 -27.9370000  50.5220000   1.4990000
 -30.4000000  49.9850000   3.9080000 -31.4580000  49.4020000   3.6570000
 -29.8970000  50.0370000   5.1540000 -29.0190000  50.5180000   5.2870000
 -30.5270000  49.4180000   6.3400000 -30.5250000  48.3350000   6.2200000
 -29.7120000  49.7850000   7.5950000 -28.6670000  49.5120000   7.4470000
 -29.7520000  50.8680000   7.7140000 -30.2030000  49.0990000   8.8850000
 -31.2780000  48.9220000   8.8460000 -29.7090000  48.1320000   8.9730000
 -29.9030000  49.9360000  10.1390000 -30.1890000  49.3720000  11.0270000
 -28.8290000  50.1150000  10.1930000 -30.6120000  51.2340000  10.1150000
 -30.0740000  52.0530000   9.8690000 -31.8950000  51.4770000  10.2940000
 -32.3150000  52.6860000  10.0880000 -31.6210000  53.3660000   9.8110000
 -33.2780000  52.9440000  10.2510000 -32.7510000  50.5620000  10.6510000
 -32.4150000  49.6380000  10.8820000 -33.7370000  50.7630000  10.7290000
 -31.9880000  49.8490000   6.4940000 -32.8510000  49.0030000   6.7070000
 -32.2740000  51.1390000   6.3310000 -31.5000000  51.7750000   6.1990000
 -33.6150000  51.7120000   6.3910000 -34.0100000  51.5500000   7.3940000
 -33.5150000  53.2240000   6.1650000 -33.1130000  53.4330000   5.1740000
 -34.5060000  53.6710000   6.2470000 -32.8660000  53.6710000   6.9180000
 -34.5960000  51.0570000   5.3990000 -35.7540000  50.8360000   5.7520000
 -34.1580000  50.7050000   4.1820000 -33.1980000  50.8880000   3.9260000
 -35.0050000  49.9540000   3.2520000 -35.9670000  50.4650000   3.2060000
 -34.4280000  49.9680000   1.8310000 -33.9980000  50.9500000   1.6310000
 -33.6320000  49.2280000   1.7450000 -35.4830000  49.7010000   0.7810000
 -35.9180000  50.5960000  -0.1660000 -35.5390000  51.5150000  -0.3470000
 -36.8260000  49.9910000  -0.9390000 -37.2920000  50.4490000  -1.7990000
 -37.0400000  48.7320000  -0.5190000 -36.1940000  48.5450000   0.5790000
 -36.1110000  47.6370000   1.1580000 -35.2830000  48.5190000   3.7330000
 -36.4160000  48.0620000   3.6300000 -34.3000000  47.8110000   4.3060000
 -33.3850000  48.2320000   4.3790000 -34.5100000  46.4570000   4.8670000
 -34.9890000  45.8440000   4.1040000 -33.1770000  45.7720000   5.2440000
 -32.7290000  46.3030000   6.0830000 -33.3980000  44.3110000   5.6560000
 -33.8150000  43.7440000   4.8230000 -32.4510000  43.8630000   5.9540000
 -34.0850000  44.2510000   6.5000000 -32.1700000  45.7650000   4.0850000
 -31.9130000  46.7820000   3.7910000 -31.2540000  45.2630000   4.3960000
 -32.5910000  45.2370000   3.2290000 -35.4570000  46.5010000   6.0790000
 -36.3810000  45.6960000   6.1940000 -35.2640000  47.4850000   6.9590000
 -34.4630000  48.0820000   6.8100000 -36.1440000  47.8280000   8.0810000
 -36.1670000  46.9860000   8.7730000 -35.4920000  49.0260000   8.7950000
 -34.4480000  48.7760000   8.9840000 -35.5070000  49.8840000   8.1230000
 -36.1050000  49.4580000  10.1360000 -35.5830000  50.4510000  10.7020000
 -37.0540000  48.8170000  10.6430000 -37.5970000  48.0980000   7.6180000
 -38.5460000  47.5010000   8.1320000 -37.7840000  48.9290000   6.5840000
 -36.9860000  49.4220000   6.2100000 -39.0780000  49.1270000   5.9270000
 -39.7900000  49.4720000   6.6770000 -38.9410000  50.2330000   4.8730000
 -38.2440000  49.9300000   4.0910000 -39.9140000  50.4280000   4.4220000
 -38.5810000  51.1490000   5.3410000 -39.6520000  47.8300000   5.3190000
 -40.8270000  47.5240000   5.5130000 -38.8380000  47.0450000   4.6060000
 -37.8920000  47.3650000   4.4580000 -39.2310000  45.7840000   3.9660000
 -40.0330000  46.0040000   3.2610000 -38.0280000  45.2440000   3.1710000
 -37.6770000  46.0230000   2.4940000 -37.2240000  45.0250000   3.8740000
 -38.2940000  43.9730000   2.3470000 -38.7020000  43.1900000   2.9860000
 -39.2650000  44.2380000   1.1950000 -38.9230000  45.0770000   0.5890000
 -39.3520000  43.3480000   0.5710000 -40.2550000  44.4640000   1.5910000
 -36.9650000  43.4820000   1.7720000 -36.2930000  43.2190000   2.5890000
 -37.1260000  42.5930000   1.1620000 -36.4960000  44.2630000   1.1740000
 -39.7850000  44.7630000   4.9740000 -40.8240000  44.1610000   4.7120000
 -39.1580000  44.6260000   6.1510000 -38.2910000  45.1300000   6.2700000
 -39.6950000  43.8800000   7.3080000 -39.7860000  42.8260000   7.0420000
 -38.6930000  44.0040000   8.4710000 -37.7820000  43.4740000   8.1930000
 -38.4350000  45.0560000   8.5950000 -39.1830000  43.4730000   9.8290000
 -40.1390000  43.9290000  10.0850000 -39.3050000  42.3910000   9.7850000
 -38.1710000  43.8450000  10.9210000 -37.2340000  43.3170000  10.7470000
 -37.9610000  44.9120000  10.8510000 -38.7000000  43.5760000  12.2730000
 -39.3920000  44.2280000  12.6140000 -38.3120000  42.6500000  13.1300000
 -38.7780000  42.6290000  14.3430000 -39.4320000  43.3300000  14.6600000
 -38.4260000  41.9280000  14.9790000 -37.4550000  41.7170000  12.8360000
 -37.0740000  41.6490000  11.9030000 -37.2010000  41.0570000  13.5580000
 -41.1040000  44.3580000   7.6900000 -42.0170000  43.5420000   7.8130000
 -41.2970000  45.6700000   7.8410000 -40.4990000  46.2820000   7.7530000
 -42.6100000  46.2760000   8.1330000 -42.9840000  45.8280000   9.0530000
 -42.4900000  47.7880000   8.3930000 -42.0360000  48.2790000   7.5320000
 -43.8300000  48.4620000   8.6870000 -44.3360000  47.9480000   9.5040000
 -43.6680000  49.5040000   8.9630000 -44.4640000  48.4410000   7.8000000
 -41.6760000  47.9950000   9.5270000 -41.5070000  48.9380000   9.5970000
 -43.6520000  45.9700000   7.0480000 -44.7630000  45.5630000   7.3800000
 -43.3130000  46.1120000   5.7610000 -42.4010000  46.4880000   5.5410000
 -44.2080000  45.7550000   4.6500000 -45.1570000  46.2680000   4.8040000
 -43.6310000  46.2400000   3.3120000 -42.6780000  45.7420000   3.1350000
 -44.3140000  45.9420000   2.5170000 -43.4330000  47.7330000   3.2090000
 -44.4070000  48.7010000   3.3290000 -45.3910000  48.5470000   3.4970000
 -43.8290000  49.9030000   3.1610000 -44.3530000  50.8460000   3.1980000
 -42.5110000  49.7620000   2.9300000 -42.2540000  48.3850000   2.9710000
 -41.2940000  47.9110000   2.8290000 -44.5250000  44.2470000   4.5730000
 -45.6480000  43.8740000   4.2290000 -43.5600000  43.3800000   4.8990000
 -42.6390000  43.7470000   5.0950000 -43.7300000  41.9250000   4.9450000
 -44.1810000  41.6090000   4.0040000 -42.3410000  41.2620000   5.0570000
 -41.7520000  41.5320000   4.1810000 -41.8370000  41.6690000   5.9340000
 -42.3550000  39.7270000   5.1930000 -42.9270000  39.4390000   6.0750000
 -42.9520000  39.0340000   3.9690000 -42.3950000  39.3070000   3.0720000
 -42.9020000  37.9550000   4.1100000 -43.9980000  39.3150000   3.8460000
 -40.9280000  39.2150000   5.3790000 -40.5000000  39.6510000   6.2820000
 -40.9340000  38.1310000   5.4850000 -40.3160000  39.4900000   4.5200000
 -44.6750000  41.4600000   6.0640000 -45.4380000  40.5200000   5.8500000
 -44.6400000  42.0850000   7.2450000 -43.9660000  42.8260000   7.3740000
 -45.3820000  41.6170000   8.4190000 -44.9980000  40.6230000   8.6460000
 -45.0260000  42.4860000   9.6340000 -45.2250000  43.5410000   9.4440000
 -45.6030000  42.1600000  10.5000000 -43.9650000  42.3740000   9.8600000
 -46.9070000  41.4180000   8.1910000 -47.3990000  40.3380000   8.5310000
 -47.6630000  42.3550000   7.5740000 -47.3250000  43.7540000   7.3680000
 -46.7450000  43.8610000   6.4520000 -46.7820000  44.1710000   8.2160000
 -48.6530000  44.4920000   7.2290000 -48.5560000  45.3900000   6.6200000
 -49.0430000  44.7350000   8.2180000 -49.5440000  43.4480000   6.5670000
 -49.3630000  43.4550000   5.4920000 -50.5990000  43.6270000   6.7760000
 -49.0610000  42.1320000   7.1880000 -49.6380000  41.9440000   8.0940000
 -49.2690000  40.9560000   6.2210000 -50.1740000  40.1460000   6.4340000
 -48.4440000  40.8410000   5.1700000 -47.7150000  41.5290000   5.0480000
 -48.5010000  39.7200000   4.2220000 -49.5030000  39.6760000   3.7940000
 -47.4980000  39.9140000   3.0690000 -46.4910000  39.8920000   3.4860000
 -47.5860000  39.0510000   2.4090000 -47.6210000  41.1610000   2.1990000
 -46.5060000  41.5640000   1.4340000 -45.5830000  41.0060000   1.4930000
 -46.5890000  42.6790000   0.5770000 -45.7360000  42.9710000  -0.0170000
 -47.7960000  43.4050000   0.4810000 -47.8910000  44.4840000  -0.3450000
 -47.0600000  44.6880000  -0.7810000 -48.9140000  43.0070000   1.2460000
 -49.8390000  43.5570000   1.1610000 -48.8290000  41.8860000   2.0960000
 -49.7030000  41.5840000   2.6530000 -48.2600000  38.3720000   4.9220000
 -49.0550000  37.4460000   4.7670000 -47.1940000  38.2740000   5.7280000
 -46.5930000  39.0830000   5.8050000 -46.8760000  37.1090000   6.5550000
 -46.7230000  36.2550000   5.8950000 -45.5550000  37.3710000   7.3080000
 -44.7420000  37.3760000   6.5820000 -45.6070000  38.3640000   7.7530000
 -45.2190000  36.3770000   8.4390000 -45.9870000  36.4420000   9.2100000
 -45.1110000  34.9220000   7.9800000 -44.2850000  34.8080000   7.2790000
 -44.9320000  34.2820000   8.8450000 -46.0350000  34.5980000   7.5010000
 -43.8820000  36.7670000   9.0730000 -43.9330000  37.7900000   9.4430000
 -43.6630000  36.1030000   9.9090000 -43.0810000  36.6900000   8.3380000
 -48.0370000  36.7350000   7.4930000 -48.4390000  35.5750000   7.5130000
 -48.5900000  37.6890000   8.2470000 -48.2110000  38.6240000   8.1980000
 -49.7480000  37.4620000   9.1200000 -49.4650000  36.7300000   9.8760000
 -50.1070000  38.7720000   9.8370000 -49.2270000  39.1350000  10.3670000
 -50.3850000  39.5210000   9.0960000 -51.2490000  38.6080000  10.8550000
 -52.0840000  39.5360000  10.9740000 -51.2970000  37.5810000  11.5740000
 -50.9670000  36.8940000   8.3600000 -51.5250000  35.8620000   8.7470000
 -51.3650000  37.5420000   7.2590000 -50.8580000  38.3710000   6.9840000
 -52.4640000  37.0990000   6.3950000 -53.3720000  37.0700000   6.9980000
 -52.6750000  38.1190000   5.2670000 -52.7950000  39.1090000   5.7060000
 -51.7900000  38.1370000   4.6300000 -53.9210000  37.8180000   4.4150000
 -54.9500000  37.3530000   4.9610000 -53.8920000  38.0940000   3.1920000
 -52.2480000  35.6820000   5.8220000 -53.1120000  34.8110000   5.9670000
 -51.0870000  35.4250000   5.2050000 -50.4090000  36.1690000   5.1180000
 -50.7220000  34.0980000   4.7100000 -51.4980000  33.7720000   4.0170000
 -49.3850000  34.1380000   3.9530000 -48.6280000  34.5760000   4.6030000
 -49.0850000  33.1070000   3.7610000 -49.3830000  34.8540000   2.6090000
 -48.3200000  35.7150000   2.2720000 -47.5330000  35.9040000   2.9880000
 -48.2720000  36.3310000   1.0090000 -47.4490000  36.9850000   0.7590000
 -49.2930000  36.0940000   0.0740000 -49.2640000  36.5690000  -0.8960000
 -50.3560000  35.2370000   0.4000000 -51.1390000  35.0500000  -0.3210000
 -50.3960000  34.6090000   1.6580000 -51.2050000  33.9290000   1.8800000
 -50.6900000  33.0430000   5.8250000 -51.3200000  32.0000000   5.6730000
 -50.0360000  33.3070000   6.9610000 -49.5540000  34.1910000   7.0430000
 -50.0000000  32.4000000   8.1130000 -49.5200000  31.4770000   7.7900000
 -49.1430000  33.0190000   9.2330000 -48.1420000  33.2120000   8.8480000
 -49.5790000  33.9770000   9.5200000 -49.0310000  32.1550000  10.5010000
 -48.3980000  32.6850000  11.2130000 -50.0160000  32.0450000  10.9540000
 -48.4240000  30.7670000  10.2780000 -48.9130000  29.7650000  10.7800000
 -47.3510000  30.6390000   9.5230000 -46.9520000  29.7160000   9.4200000
 -46.9030000  31.4490000   9.1180000 -51.4100000  32.0250000   8.6010000
 -51.6900000  30.8400000   8.8030000 -52.3150000  33.0080000   8.7350000
 -52.0170000  33.9590000   8.5720000 -53.7310000  32.7620000   9.0470000
 -53.7930000  32.2340000   9.9980000 -54.4900000  34.0960000   9.1880000
 -54.0380000  34.6740000   9.9930000 -54.4020000  34.6680000   8.2640000
 -55.9840000  33.8840000   9.5020000 -56.4530000  33.3270000   8.6910000
 -56.0790000  33.3120000  10.4250000 -56.7140000  35.2240000   9.6620000
 -56.2400000  35.7810000  10.4700000 -56.6170000  35.8090000   8.7470000
 -58.2010000  35.0520000  10.0090000 -58.2920000  34.3890000  10.8700000
 -58.5870000  36.0270000  10.3050000 -59.0110000  34.5350000   8.8720000
 -58.8140000  33.5690000   8.6560000 -59.9960000  34.5680000   9.0930000
 -58.8720000  35.0820000   8.0340000 -54.3740000  31.8570000   7.9950000
 -54.9470000  30.8350000   8.3630000 -54.2460000  32.1860000   6.7050000
 -53.7490000  33.0380000   6.4850000 -54.8330000  31.4100000   5.6010000
 -55.9090000  31.3570000   5.7690000 -54.5970000  32.1450000   4.2700000
 -54.8530000  33.1960000   4.4030000 -53.5470000  32.0780000   3.9840000
 -55.4780000  31.5700000   3.1490000 -55.1780000  30.5430000   2.9430000
 -56.5150000  31.5740000   3.4850000 -55.3710000  32.4060000   1.8650000
 -55.5230000  33.4560000   2.1170000 -54.3770000  32.3030000   1.4300000
 -56.4480000  32.0150000   0.8400000 -57.4180000  32.0220000   1.3370000
 -56.4790000  32.7820000   0.0660000 -56.1990000  30.6860000   0.2150000
 -56.1240000  29.9490000   0.9000000 -56.9540000  30.4430000  -0.4110000
 -55.3440000  30.6830000  -0.3210000 -54.3260000  29.9630000   5.5710000
 -55.1310000  29.0410000   5.4730000 -53.0170000  29.7540000   5.7160000
 -52.4160000  30.5640000   5.7630000 -52.3850000  28.4350000   5.8110000
 -52.6140000  27.8720000   4.9070000 -50.8590000  28.5980000   5.9080000
 -50.6300000  29.1290000   6.8320000 -50.4250000  27.6010000   5.9840000
 -50.1500000  29.3070000   4.7890000 -50.6210000  29.4970000   3.5340000
 -51.5870000  29.1710000   3.1780000 -49.6820000  30.1730000   2.7800000
 -49.8200000  30.4240000   1.8110000 -48.5410000  30.4350000   3.5030000
 -47.3320000  31.0690000   3.1800000 -47.1690000  31.4580000   2.1860000
 -46.3450000  31.2010000   4.1690000 -45.4030000  31.6740000   3.9340000
 -46.5880000  30.7190000   5.4680000 -45.8280000  30.8290000   6.2280000
 -47.8100000  30.0900000   5.7820000 -47.9800000  29.7240000   6.7830000
 -48.8160000  29.9140000   4.8030000 -52.9150000  27.6090000   6.9930000
 -53.2840000  26.4520000   6.8080000 -52.9870000  28.1870000   8.1980000
 -52.6490000  29.1330000   8.3010000 -53.5310000  27.5150000   9.3850000
 -53.0140000  26.5620000   9.4980000 -53.2150000  28.3660000  10.6260000
 -52.1340000  28.4970000  10.6820000 -53.6750000  29.3490000  10.5250000
 -53.6960000  27.7140000  11.9320000 -54.7770000  27.8210000  12.0150000
 -53.4560000  26.6510000  11.9160000 -53.0350000  28.3390000  13.1600000
 -52.2380000  27.7220000  13.8540000 -53.3190000  29.5880000  13.4690000
 -52.8750000  29.9930000  14.2800000 -53.9790000  30.1180000  12.9170000
 -55.0360000  27.1960000   9.2590000 -55.4790000  26.0890000   9.5700000
 -55.8240000  28.1620000   8.7830000 -55.4000000  29.0550000   8.5740000
 -57.2580000  28.0310000   8.5070000 -57.7610000  27.7430000   9.4300000
 -57.7920000  29.4110000   8.0910000 -57.5420000  30.1120000   8.8880000
 -57.2920000  29.7310000   7.1770000 -59.3070000  29.4540000   7.8620000
 -59.5530000  28.8040000   7.0230000 -59.8050000  29.0660000   8.7500000
 -59.8250000  30.8830000   7.5800000 -60.8610000  31.0160000   6.8830000
 -59.2320000  31.8830000   8.0600000 -57.5580000  26.9320000   7.4670000
 -58.4370000  26.0940000   7.6820000 -56.8040000  26.8950000   6.3630000
 -56.1280000  27.6300000   6.2150000 -56.8060000  25.7810000   5.4110000
 -57.8240000  25.6620000   5.0380000 -55.8940000  26.0920000   4.2120000
 -56.2490000  26.9980000   3.7190000 -54.8850000  26.2850000   4.5760000
 -55.8200000  24.9540000   3.1810000 -55.1190000  25.2450000   2.3990000
 -55.4000000  24.0700000   3.6610000 -57.1790000  24.5960000   2.5330000
 -58.1040000  25.4450000   2.4870000 -57.3220000  23.4530000   2.0360000
 -56.4160000  24.4500000   6.0730000 -57.1480000  23.4720000   5.9290000
 -55.2940000  24.4060000   6.8060000 -54.7350000  25.2450000   6.8670000
 -54.7630000  23.1940000   7.4420000 -54.5100000  22.4940000   6.6450000
 -53.4510000  23.5070000   8.1850000 -52.6990000  23.8200000   7.4610000
 -53.6200000  24.3290000   8.8800000 -52.8940000  22.3220000   8.9880000
 -51.9750000  22.6470000   9.4760000 -53.6040000  22.0630000   9.7740000
 -52.5230000  20.8280000   8.0250000 -52.0590000  19.7100000   9.3760000
 -52.9080000  19.5720000  10.0470000 -51.7660000  18.7430000   8.9650000
 -51.2230000  20.1290000   9.9350000 -55.7860000  22.4910000   8.3490000
 -55.8820000  21.2650000   8.3240000 -56.5830000  23.2340000   9.1220000
 -56.4430000  24.2340000   9.1280000 -57.6940000  22.6730000   9.9050000
 -57.2720000  22.0110000  10.6610000 -58.4290000  23.8090000  10.6370000
 -57.7150000  24.3070000  11.2940000 -58.8000000  24.5350000   9.9140000
 -59.6030000  23.2960000  11.4810000 -60.4370000  23.0480000  10.8250000
 -59.2940000  22.3830000  11.9890000 -60.0590000  24.3300000  12.5280000
 -60.3100000  25.5080000  12.1720000 -60.1830000  23.9630000  13.7230000
 -58.6570000  21.8120000   9.0580000 -58.9330000  20.6620000   9.4050000
 -59.1450000  22.3430000   7.9320000 -58.8310000  23.2670000   7.6730000
 -60.0010000  21.6150000   6.9840000 -60.8000000  21.1290000   7.5440000
 -60.6430000  22.6060000   5.9950000 -59.8540000  23.0520000   5.3890000
 -61.2970000  22.0460000   5.3250000 -61.4580000  23.7420000   6.6430000
 -60.8120000  24.3380000   7.2880000 -62.0130000  24.6580000   5.5530000
 -62.6830000  24.1000000   4.8980000 -62.5590000  25.4840000   6.0090000
 -61.1910000  25.0660000   4.9650000 -62.6340000  23.2190000   7.4710000
 -62.2650000  22.6560000   8.3280000 -63.2220000  24.0580000   7.8440000
 -63.2690000  22.5790000   6.8590000 -59.2440000  20.5010000   6.2360000
 -59.7650000  19.4010000   6.0520000 -57.9960000  20.7670000   5.8460000
 -57.6500000  21.7010000   6.0150000 -57.0920000  19.8330000   5.1680000
 -57.5460000  19.5540000   4.2170000 -55.7730000  20.5810000   4.9010000
 -56.0090000  21.5910000   4.5650000 -55.2430000  20.6650000   5.8500000
 -54.8150000  20.0170000   3.8720000 -55.2790000  19.6200000   2.6010000
 -56.3320000  19.6620000   2.3640000 -54.3670000  19.1900000   1.6200000
 -54.7240000  18.8710000   0.6520000 -52.9820000  19.1800000   1.8940000
 -52.1020000  18.7820000   0.9350000 -51.1940000  18.8600000   1.2340000
 -52.5130000  19.5880000   3.1630000 -51.4550000  19.5900000   3.3780000
 -53.4310000  20.0030000   4.1470000 -53.0660000  20.3310000   5.1080000
 -56.8900000  18.5500000   5.9970000 -57.0500000  17.4420000   5.4820000
 -56.6500000  18.7090000   7.3090000 -56.4960000  19.6550000   7.6280000
 -56.6630000  17.6500000   8.3310000 -55.9520000  16.8750000   8.0450000
 -56.2070000  18.2730000   9.6650000 -55.2370000  18.7490000   9.5180000
 -56.9170000  19.0480000   9.9550000 -56.0750000  17.2540000  10.8070000
 -56.9850000  16.6620000  10.9020000 -55.2480000  16.5810000  10.5840000
 -55.8090000  17.9550000  12.1450000 -55.5490000  17.1930000  12.8800000
 -54.9560000  18.6240000  12.0280000 -57.0070000  18.6760000  12.6330000
 -57.8730000  18.1570000  12.6130000 -57.0780000  19.8810000  13.1710000
 -58.2170000  20.3330000  13.6080000 -59.0470000  19.7620000  13.5480000
 -58.2810000  21.2450000  14.0370000 -56.0410000  20.6620000  13.2890000
 -55.1380000  20.3400000  12.9720000 -56.1230000  21.5630000  13.7370000
 -58.0340000  16.9760000   8.4600000 -58.1190000  15.7540000   8.3690000
 -59.1040000  17.7560000   8.6560000 -58.9460000  18.7510000   8.7340000
 -60.4720000  17.2630000   8.9000000 -60.4890000  16.7860000   9.8800000
 -61.4380000  18.4630000   8.9460000 -61.1040000  19.1570000   9.7180000
 -61.4010000  18.9760000   7.9850000 -62.9060000  18.0980000   9.2250000
 -63.2360000  17.3120000   8.5460000 -62.9990000  17.7320000  10.2470000
 -63.8270000  19.3020000   9.0290000 -64.5450000  19.4130000   8.0450000
 -63.8250000  20.2620000   9.9300000 -64.4320000  21.0560000   9.7840000
 -63.2450000  20.1930000  10.7540000 -60.9250000  16.2070000   7.8740000
 -61.4620000  15.1650000   8.2510000 -60.6760000  16.4500000   6.5790000
 -60.2350000  17.3280000   6.3450000 -61.1320000  15.5790000   5.4770000
 -62.1110000  15.1780000   5.7410000 -61.3100000  16.4180000   4.1930000
 -60.3370000  16.8020000   3.8870000 -61.6780000  15.7690000   3.3990000
 -62.2870000  17.6080000   4.3240000 -61.8770000  18.3380000   5.0220000
 -62.3590000  18.0890000   3.3480000 -63.6980000  17.2180000   4.7990000
 -64.1320000  16.4870000   4.1170000 -63.6270000  16.7620000   5.7870000
 -64.6340000  18.4300000   4.9350000 -65.5100000  18.1170000   5.5030000
 -64.1310000  19.2010000   5.5190000 -65.0720000  18.9760000   3.6210000
 -65.5490000  18.2750000   3.0720000 -65.7190000  19.7410000   3.7520000
 -64.2960000  19.3310000   3.0800000 -60.2730000  14.3200000   5.2500000
 -60.6280000  13.4970000   4.4070000 -59.1990000  14.1120000   6.0220000
 -58.9350000  14.8360000   6.6750000 -58.4740000  12.8210000   6.0820000
 -58.3330000  12.4520000   5.0660000 -57.0740000  12.9680000   6.7160000
 -57.1710000  13.4140000   7.7060000 -56.3290000  11.6340000   6.8760000
 -56.2740000  11.1180000   5.9170000 -55.3190000  11.8130000   7.2430000
 -56.8380000  10.9980000   7.6010000 -56.2000000  13.8720000   5.8500000
 -56.6390000  14.8680000   5.7890000 -55.2090000  13.9580000   6.2950000
 -56.1020000  13.4580000   4.8460000 -59.2760000  11.7490000   6.8150000
 -59.3040000  10.6050000   6.3700000 -59.9280000  12.0990000   7.9280000
 -59.9000000  13.0660000   8.2180000 -60.6060000  11.1390000   8.8090000
 -59.8290000  10.4830000   9.2020000 -61.1990000  11.8580000  10.0360000
 -60.3780000  12.3450000  10.5620000 -61.9010000  12.6320000   9.7260000
 -61.9160000  10.9010000  11.0000000 -62.7770000  10.4670000  10.4920000
 -61.2350000  10.0900000  11.2610000 -62.3780000  11.6030000  12.2930000
 -61.5780000  12.3320000  12.9290000 -63.5490000  11.4080000  12.7030000
 -61.5890000  10.1910000   8.0830000 -61.4510000   8.9810000   8.2720000
 -62.5170000  10.6590000   7.2170000 -62.8840000  12.0460000   6.9630000
 -62.2420000  12.4520000   6.1810000 -62.8280000  12.6680000   7.8560000
 -64.3250000  11.9970000   6.4680000 -64.5680000  12.8570000   5.8430000
 -65.0040000  11.9310000   7.3180000 -64.3560000  10.6920000   5.6790000
 -63.9650000  10.8720000   4.6770000 -65.3640000  10.2810000   5.6230000
 -63.4150000   9.7730000   6.4700000 -64.0070000   9.2050000   7.1880000
 -62.6730000   8.7870000   5.5540000 -62.9570000   7.5880000   5.5790000
 -61.7000000   9.2770000   4.7700000 -61.4980000  10.2650000   4.8310000
 -60.8780000   8.4590000   3.8670000 -61.5500000   7.9400000   3.1830000
 -59.9530000   9.3890000   3.0510000 -60.5410000  10.1920000   2.6070000
 -59.2430000   9.8510000   3.7380000 -59.1610000   8.6800000   1.9340000
 -58.7000000   7.7730000   2.3250000 -60.0480000   8.3190000   0.7420000
 -60.4270000   9.2260000   0.2710000 -59.4660000   7.7610000   0.0080000
 -60.8890000   7.7050000   1.0630000 -58.0510000   9.5910000   1.4110000
 -57.3680000   9.8420000   2.2230000 -57.4880000   9.0750000   0.6330000
 -58.4770000  10.5050000   0.9990000 -60.0830000   7.3860000   4.6340000
 -60.0910000   6.2110000   4.2650000 -59.4160000   7.7910000   5.7230000
 -59.4620000   8.7730000   5.9530000 -58.5940000   6.9190000   6.5800000
 -57.9000000   6.3720000   5.9420000 -57.7710000   7.8100000   7.5280000
 -57.2480000   8.5530000   6.9270000 -58.4410000   8.3340000   8.2100000
 -56.7250000   7.0210000   8.3330000 -57.2210000   6.3720000   9.0550000
 -56.1470000   6.4000000   7.6490000 -55.7550000   7.9540000   9.0690000
 -54.9810000   7.3470000   9.5380000 -55.2830000   8.6070000   8.3340000
 -56.4310000   8.7610000  10.1080000 -57.3410000   8.4460000  10.4120000
 -55.9380000   9.8180000  10.7300000 -56.6400000  10.4370000  11.6350000
 -57.5590000  10.1020000  11.8880000 -56.2620000  11.2410000  12.1150000
 -54.7470000  10.2800000  10.4720000 -54.1690000   9.7960000   9.8000000
 -54.3760000  11.0710000  10.9780000 -59.4300000   5.8670000   7.3150000
 -59.0460000   4.6990000   7.3420000 -60.5850000   6.2550000   7.8590000
 -60.8270000   7.2350000   7.8210000 -61.5490000   5.3380000   8.4680000
 -61.0510000   4.7990000   9.2740000 -62.6940000   6.1500000   9.0850000
 -63.2100000   6.7230000   8.3150000 -63.4040000   5.4760000   9.5630000
 -62.2990000   6.8340000   9.8370000 -62.0690000   4.2920000   7.4660000
 -62.0440000   3.0980000   7.7590000 -62.4990000   4.7240000   6.2760000
 -62.5200000   5.7190000   6.1050000 -62.9520000   3.8400000   5.1940000
 -63.7930000   3.2550000   5.5660000 -63.4620000   4.6920000   4.0210000
 -64.2490000   5.3450000   4.3990000 -62.6530000   5.3110000   3.6340000
 -64.0460000   3.8490000   2.8810000 -63.2370000   3.3880000   2.3160000
 -64.6510000   3.0510000   3.3110000 -64.9210000   4.7060000   1.9440000
 -64.4390000   5.7360000   1.4150000 -66.1020000   4.3390000   1.7290000
 -61.8720000   2.8340000   4.7570000 -62.1460000   1.6340000   4.6740000
 -60.6390000   3.3110000   4.5280000 -60.5010000   4.3100000   4.5790000
 -59.4710000   2.4740000   4.2400000 -59.6600000   1.9300000   3.3150000
 -58.2370000   3.3760000   4.0220000 -58.3890000   3.9600000   3.1140000
 -58.1690000   4.0760000   4.8550000 -56.8860000   2.6360000   3.9240000
 -56.7000000   2.0940000   4.8510000 -56.8300000   1.6450000   2.7610000
 -57.0030000   2.1620000   1.8170000 -55.8490000   1.1710000   2.7320000
 -57.5790000   0.8640000   2.8920000 -55.7580000   3.6510000   3.7410000
 -55.7460000   4.3430000   4.5830000 -54.7990000   3.1340000   3.7030000
 -55.9020000   4.2110000   2.8170000 -59.2440000   1.4240000   5.3370000
 -59.2100000   0.2310000   5.0370000 -59.1180000   1.8550000   6.5970000
 -59.1660000   2.8490000   6.7700000 -58.9030000   0.9670000   7.7410000
 -57.9660000   0.4340000   7.5790000 -58.7490000   1.8060000   9.0230000
 -57.8860000   2.4610000   8.9020000 -59.6370000   2.4230000   9.1610000
 -58.5370000   0.9310000  10.2720000 -59.4710000   0.4220000  10.5140000
 -57.7800000   0.1790000  10.0510000 -58.0900000   1.7130000  11.5090000
 -57.2240000   1.2820000  12.2590000 -58.6390000   2.8790000  11.7840000
 -58.3230000   3.3710000  12.6080000 -59.3710000   3.2580000  11.2000000
 -60.0060000  -0.0960000   7.8690000 -59.7010000  -1.2830000   7.9510000
 -61.2790000   0.3100000   7.8650000 -61.4640000   1.3000000   7.7790000
 -62.4350000  -0.5880000   7.9680000 -62.3670000  -1.1200000   8.9180000
 -63.7280000   0.2490000   7.9760000 -63.7030000   0.9260000   8.8300000
 -63.7550000   0.8580000   7.0730000 -65.0280000  -0.5710000   8.0300000
 -65.8650000   0.1270000   8.0500000 -65.1140000  -1.1480000   7.1100000
 -65.1380000  -1.5140000   9.2480000 -65.8360000  -2.5520000   9.1410000
 -64.5690000  -1.2180000  10.3270000 -62.4550000  -1.6530000   6.8600000
 -62.5190000  -2.8500000   7.1500000 -62.3710000  -1.2300000   5.5920000
 -62.2990000  -0.2380000   5.4170000 -62.3690000  -2.1380000   4.4420000
 -63.2910000  -2.7190000   4.4430000 -62.3320000  -1.5510000   3.5240000
 -61.1830000  -3.1050000   4.4470000 -61.3540000  -4.3040000   4.2240000
 -59.9830000  -2.5990000   4.7430000 -59.9050000  -1.6050000   4.9070000
 -58.7670000  -3.3970000   4.8610000 -58.6270000  -3.9470000   3.9300000
 -57.5850000  -2.4390000   5.0210000 -57.6760000  -1.8700000   5.9460000
 -56.6600000  -3.0150000   5.0440000 -57.5450000  -1.7530000   4.1750000
 -58.8420000  -4.4350000   5.9970000 -58.5340000  -5.6070000   5.7800000
 -59.3100000  -4.0370000   7.1890000 -59.5280000  -3.0570000   7.3030000
 -59.5310000  -4.9310000   8.3440000 -58.5840000  -5.4140000   8.5850000
 -59.9930000  -4.0880000   9.5500000 -59.3660000  -3.2000000   9.6300000
 -61.0130000  -3.7470000   9.3720000 -59.9550000  -4.8300000  10.8970000
 -60.5390000  -4.2580000  11.6180000 -60.4280000  -5.8070000  10.7930000
 -58.5340000  -5.0150000  11.4560000 -58.5820000  -5.6170000  12.3640000
 -57.9330000  -5.5700000  10.7360000 -57.8770000  -3.7190000  11.7440000
 -57.2360000  -3.3770000  11.0430000 -58.0550000  -2.9450000  12.8030000
 -57.4240000  -1.8110000  12.9060000 -56.7930000  -1.4970000  12.1830000
 -57.5920000  -1.2010000  13.6940000 -58.8590000  -3.2690000  13.7740000
 -59.3610000  -4.1450000  13.7270000 -58.9940000  -2.6560000  14.5650000
 -60.5310000  -6.0440000   8.0160000 -60.2680000  -7.2100000   8.2980000
 -61.6430000  -5.6990000   7.3630000 -61.8120000  -4.7150000   7.2090000
 -62.6460000  -6.6590000   6.8840000 -63.0050000  -7.2210000   7.7460000
 -63.8400000  -5.8850000   6.3010000 -64.1570000  -5.1330000   7.0230000
 -63.5260000  -5.3750000   5.3900000 -65.0470000  -6.7880000   5.9950000
 -64.7650000  -7.5630000   5.2830000 -65.3640000  -7.2720000   6.9180000
 -66.2210000  -6.0060000   5.4060000 -66.0620000  -5.1080000   4.5870000
 -67.4460000  -6.3330000   5.7590000 -68.2140000  -5.8080000   5.3650000
 -67.6080000  -7.0760000   6.4230000 -62.0500000  -7.6770000   5.8910000
 -62.2310000  -8.8820000   6.0630000 -61.2830000  -7.2090000   4.8930000
 -61.2040000  -6.2070000   4.7920000 -60.5700000  -8.0660000   3.9230000
 -61.3030000  -8.7030000   3.4280000 -59.9120000  -7.1700000   2.8540000
 -60.6650000  -6.4840000   2.4650000 -59.1190000  -6.5810000   3.3130000
 -59.3420000  -7.9810000   1.6750000 -58.5450000  -8.6350000   2.0280000
 -60.1370000  -8.6090000   1.2720000 -58.8110000  -7.0900000   0.5360000
 -58.5440000  -7.7230000  -0.3100000 -59.6200000  -6.4370000   0.2070000
 -57.6020000  -6.2090000   0.9100000 -57.4370000  -5.5030000   0.0960000
 -57.8450000  -5.6200000   1.7950000 -56.3550000  -7.0020000   1.1360000
 -56.1090000  -7.5500000   0.3230000 -55.5720000  -6.3950000   1.3280000
 -56.4390000  -7.6320000   1.9210000 -59.5630000  -9.0080000   4.6030000
 -59.5270000 -10.1980000   4.2950000 -58.7830000  -8.4990000   5.5600000
 -58.8300000  -7.5040000   5.7250000 -57.8640000  -9.2980000   6.3810000
 -57.1750000  -9.8100000   5.7090000 -57.0390000  -8.3470000   7.2720000
 -56.4690000  -7.6750000   6.6310000 -57.7270000  -7.7400000   7.8600000
 -56.0740000  -9.0480000   8.2480000 -56.6370000  -9.6980000   8.9170000
 -55.0070000  -9.8760000   7.5310000 -54.4600000  -9.2540000   6.8220000
 -54.3100000 -10.2780000   8.2650000 -55.4680000 -10.7110000   7.0040000
 -55.3640000  -7.9980000   9.0980000 -56.1000000  -7.3980000   9.6330000
 -54.7200000  -8.4880000   9.8280000 -54.7600000  -7.3520000   8.4610000
 -58.5930000 -10.3870000   7.1910000 -58.1480000 -11.5330000   7.2120000
 -59.7230000 -10.0610000   7.8250000 -60.0190000  -9.0950000   7.8260000
 -60.5340000 -11.0420000   8.5540000 -59.8740000 -11.5680000   9.2430000
 -61.5810000 -10.3140000   9.4050000 -61.0780000  -9.5950000  10.0530000
 -62.2590000  -9.7650000   8.7510000 -62.3820000 -11.2540000  10.2700000
 -61.8760000 -12.1440000  11.1920000 -60.9020000 -12.2890000  11.4160000
 -62.8980000 -12.8570000  11.6930000 -62.7980000 -13.6390000  12.4310000
 -64.0600000 -12.4700000  11.1310000 -63.7360000 -11.4590000  10.2150000
 -64.4240000 -10.9400000   9.5640000 -61.1660000 -12.1110000   7.6370000
 -61.1810000 -13.2930000   7.9810000 -61.6300000 -11.7330000   6.4410000
 -61.6580000 -10.7470000   6.2270000 -62.0540000 -12.6810000   5.4000000
 -62.8660000 -13.2870000   5.8030000 -62.6150000 -11.9080000   4.1920000
 -63.4840000 -11.3430000   4.5270000 -61.8640000 -11.2090000   3.8230000
 -63.0280000 -12.8400000   3.0440000 -62.1390000 -13.3430000   2.6650000
 -63.7010000 -13.5990000   3.4420000 -63.7240000 -12.1270000   1.8650000
 -64.0110000 -10.9070000   1.9280000 -64.0030000 -12.8230000   0.8570000
 -60.9300000 -13.6620000   5.0100000 -61.1390000 -14.8770000   5.0120000
 -59.7280000 -13.1470000   4.7170000 -59.6370000 -12.1410000   4.7040000
 -58.5280000 -13.9460000   4.4390000 -58.7230000 -14.5530000   3.5550000
 -57.3710000 -12.9760000   4.1210000 -57.6340000 -12.4000000   3.2340000
 -57.2720000 -12.2720000   4.9480000 -55.9960000 -13.6320000   3.9020000
 -55.7230000 -14.2210000   4.7770000 -55.9920000 -14.5360000   2.6730000
 -56.3840000 -14.0000000   1.8090000 -54.9750000 -14.8650000   2.4600000
 -56.6070000 -15.4140000   2.8700000 -54.9360000 -12.5480000   3.7130000
 -54.8960000 -11.9120000   4.5970000 -53.9590000 -13.0110000   3.5750000
 -55.1730000 -11.9380000   2.8410000 -58.1910000 -14.9170000   5.5900000
 -58.0070000 -16.1140000   5.3590000 -58.1470000 -14.4060000   6.8250000
 -58.2910000 -13.4100000   6.9190000 -57.9530000 -15.1740000   8.0600000
 -56.9470000 -15.5940000   8.0570000 -58.0580000 -14.2010000   9.2490000
 -57.2900000 -13.4340000   9.1500000 -59.0300000 -13.7110000   9.1890000
 -57.9300000 -14.8420000  10.6420000 -58.5600000 -15.7290000  10.7080000
 -56.8960000 -15.1500000  10.7940000 -58.3540000 -13.9020000  11.7770000
 -59.1090000 -12.9490000  11.6140000 -57.9050000 -14.1480000  12.9900000
 -58.1910000 -13.5320000  13.7380000 -57.2930000 -14.9320000  13.1640000
 -58.9410000 -16.3510000   8.1780000 -58.5270000 -17.4870000   8.4140000
 -60.2400000 -16.0900000   8.0070000 -60.5150000 -15.1330000   7.8390000
 -61.3010000 -17.1010000   8.0660000 -61.2280000 -17.6110000   9.0260000
 -62.6680000 -16.3930000   8.0060000 -62.7550000 -15.7250000   8.8630000
 -62.7070000 -15.7770000   7.1070000 -63.8860000 -17.3300000   7.9820000
 -64.7860000 -16.7140000   7.9750000 -63.8740000 -17.8900000   7.0470000
 -63.9640000 -18.3100000   9.1730000 -64.5600000 -19.4030000   9.0120000
 -63.4710000 -17.9940000  10.2830000 -61.1660000 -18.1810000   6.9770000
 -61.1290000 -19.3750000   7.2840000 -61.0820000 -17.7770000   5.7010000
 -61.0810000 -16.7830000   5.5240000 -61.1590000 -18.6870000   4.5410000
 -62.0390000 -19.3170000   4.6700000 -61.3630000 -17.8650000   3.2560000
 -60.6610000 -17.0310000   3.2430000 -61.1740000 -18.5000000   2.3910000
 -62.8060000 -17.3390000   3.1670000 -63.4880000 -18.1890000   3.2060000
 -63.0150000 -16.6920000   4.0190000 -63.0660000 -16.5590000   1.8710000
 -62.4620000 -15.6520000   1.8660000 -62.7940000 -17.1770000   1.0150000
 -64.5590000 -16.2050000   1.7920000 -65.1340000 -17.1310000   1.8060000
 -64.8330000 -15.6330000   2.6790000 -64.8890000 -15.4290000   0.5670000
 -64.5890000 -15.9050000  -0.2720000 -65.8850000 -15.2790000   0.4950000
 -64.4630000 -14.5140000   0.5880000 -59.9920000 -19.6790000   4.4190000
 -60.1700000 -20.7560000   3.8510000 -58.8180000 -19.3550000   4.9700000
 -58.7380000 -18.4380000   5.3860000 -57.6490000 -20.2530000   5.0210000
 -57.5620000 -20.7600000   4.0600000 -56.3780000 -19.4090000   5.2410000
 -56.5610000 -18.7190000   6.0640000 -55.5530000 -20.0580000   5.5360000
 -55.9470000 -18.6190000   3.9910000 -56.8140000 -18.1290000   3.5470000
 -54.9430000 -17.5410000   4.3810000 -54.0620000 -17.9910000   4.8390000
 -54.6470000 -16.9770000   3.4970000 -55.4160000 -16.8510000   5.0800000
 -55.2900000 -19.5240000   2.9450000 -56.0040000 -20.2650000   2.5830000
 -54.9590000 -18.9260000   2.0960000 -54.4280000 -20.0320000   3.3760000
 -57.7480000 -21.3810000   6.0720000 -56.9720000 -22.3350000   6.0070000
 -58.6900000 -21.3040000   7.0210000 -59.3100000 -20.5060000   7.0070000
 -58.8260000 -22.2440000   8.1500000 -57.9760000 -22.0630000   8.8080000
 -60.0780000 -21.9000000   8.9690000 -59.9840000 -20.8810000   9.3450000
 -60.9630000 -21.9490000   8.3340000 -60.2310000 -22.7880000  10.0610000
 -61.0100000 -22.5220000  10.5550000 -58.7670000 -23.7480000   7.7850000
 -57.8920000 -24.4430000   8.3170000 -59.6130000 -24.2890000   6.8750000
 -60.6920000 -23.6260000   6.1520000 -60.3600000 -22.7070000   5.6690000
 -61.5150000 -23.4200000   6.8360000 -61.1610000 -24.6210000   5.0920000
 -60.5520000 -24.5230000   4.1940000 -62.2170000 -24.4910000   4.8560000
 -60.8920000 -25.9690000   5.7580000 -60.7820000 -26.7680000   5.0260000
 -61.7050000 -26.1990000   6.4470000 -59.6060000 -25.7230000   6.5550000
 -59.6520000 -26.3040000   7.4760000 -58.3580000 -26.1710000   5.7750000
 -57.8970000 -27.3020000   5.9490000 -57.7730000 -25.2910000   4.9510000
 -58.1840000 -24.3720000   4.8670000 -56.5380000 -25.5650000   4.2060000
 -56.6900000 -26.4910000   3.6510000 -56.3070000 -24.4320000   3.1910000
 -57.1760000 -24.3850000   2.5350000 -56.2400000 -23.4850000   3.7260000
 -55.0430000 -24.5750000   2.3220000 -54.1570000 -24.4940000   2.9520000
 -54.9960000 -25.9010000   1.5630000 -55.9030000 -26.0160000   0.9690000
 -54.1220000 -25.9210000   0.9120000 -54.9080000 -26.7370000   2.2560000
 -55.0200000 -23.4460000   1.2910000 -54.9540000 -22.4860000   1.8010000
 -54.1550000 -23.5570000   0.6370000 -55.9250000 -23.4700000   0.6830000
 -55.3300000 -25.7860000   5.1350000 -54.4860000 -26.6410000   4.8570000
 -55.2810000 -25.0620000   6.2600000 -55.9860000 -24.3510000   6.3960000
 -54.3050000 -25.2820000   7.3300000 -53.3090000 -25.0380000   6.9580000
 -54.5290000 -24.6220000   8.1680000 -54.2830000 -26.7260000   7.8440000
 -53.2190000 -27.3360000   7.9560000 -55.4610000 -27.2910000   8.1200000
 -56.2960000 -26.7340000   8.0060000 -55.6140000 -28.7000000   8.5010000
 -54.9210000 -28.9010000   9.3170000 -57.0520000 -28.9460000   9.0030000
 -57.5400000 -27.9910000   9.1970000 -57.6330000 -29.4570000   8.2360000
 -57.1040000 -29.7510000  10.3060000 -56.6260000 -29.1630000  11.0910000
 -58.1480000 -29.8810000  10.5890000 -56.4290000 -31.1310000  10.2050000
 -56.9640000 -32.0220000   9.5030000 -55.3820000 -31.3290000  10.8710000
 -55.2480000 -29.6490000   7.3420000 -54.4510000 -30.5720000   7.5170000
 -55.8080000 -29.4110000   6.1490000 -56.4510000 -28.6360000   6.0770000
 -55.6220000 -30.2600000   4.9660000 -56.0140000 -31.2480000   5.2080000
 -56.4340000 -29.7050000   3.7830000 -57.4860000 -29.6570000   4.0620000
 -56.0970000 -28.6890000   3.5750000 -56.2910000 -30.5220000   2.4880000
 -56.9300000 -30.0700000   1.7300000 -55.2640000 -30.4400000   2.1310000
 -56.6630000 -32.0110000   2.6310000 -57.5670000 -32.3610000   3.4230000
 -56.1080000 -32.8530000   1.8830000 -54.1520000 -30.4580000   4.5690000
 -53.7180000 -31.6000000   4.4030000 -53.3800000 -29.3750000   4.4000000
 -53.7750000 -28.4590000   4.5560000 -51.9700000 -29.4900000   4.0100000
 -51.9270000 -30.1060000   3.1120000 -51.3670000 -28.1210000   3.6580000
 -52.0420000 -27.5750000   2.9990000 -51.2300000 -27.5430000   4.5720000
 -50.0180000 -28.3040000   2.9430000 -49.4400000 -29.0870000   3.4340000
 -50.2100000 -28.6440000   1.9250000 -48.9590000 -26.8390000   2.8710000
 -48.2980000 -26.9240000   4.5540000 -47.8500000 -27.9040000   4.7210000
 -47.5390000 -26.1540000   4.6910000 -49.1060000 -26.7790000   5.2720000
 -51.1340000 -30.2070000   5.0790000 -50.3160000 -31.0610000   4.7370000
 -51.3630000 -29.9110000   6.3690000 -52.0590000 -29.2100000   6.5780000
 -50.7120000 -30.6010000   7.4960000 -49.6350000 -30.4580000   7.4140000
 -51.1900000 -29.9730000   8.8180000 -51.0050000 -28.8990000   8.7800000
 -52.2630000 -30.1250000   8.9280000 -50.4620000 -30.5560000  10.0400000
 -50.6740000 -31.6210000  10.1310000 -49.3880000 -30.4270000   9.9040000
 -50.8760000 -29.8530000  11.3390000 -50.2380000 -30.2210000  12.1430000
 -50.7100000 -28.7810000  11.2290000 -52.2900000 -30.1040000  11.6900000
 -52.8320000 -30.6910000  11.0710000 -52.9320000 -29.6400000  12.7460000
 -54.1830000 -29.9400000  12.9200000 -54.6480000 -30.5020000  12.2210000
 -54.6900000 -29.6170000  13.7310000 -52.3580000 -28.8880000  13.6410000
 -51.3870000 -28.6350000  13.5270000 -52.8770000 -28.5500000  14.4400000
 -50.9610000 -32.1090000   7.4530000 -50.0110000 -32.8880000   7.4960000
 -52.2220000 -32.5160000   7.3160000 -52.9460000 -31.8120000   7.2880000
 -52.6200000 -33.9160000   7.1490000 -52.3230000 -34.4670000   8.0410000
 -54.1470000 -33.9990000   7.0260000 -54.5990000 -33.5600000   7.9160000
 -54.4690000 -33.4180000   6.1620000 -54.6420000 -35.4470000   6.8830000
 -54.2160000 -36.3240000   7.6690000 -55.4550000 -35.7130000   5.9650000
 -51.9320000 -34.5810000   5.9430000 -51.3500000 -35.6580000   6.0780000
 -51.9500000 -33.9330000   4.7700000 -52.4630000 -33.0640000   4.7230000
 -51.3310000 -34.4540000   3.5390000 -51.7010000 -35.4690000   3.3940000
 -51.7480000 -33.5840000   2.3340000 -52.6890000 -33.0730000   2.5380000
 -50.9950000 -32.8120000   2.1750000 -51.9170000 -34.3930000   1.0350000
 -51.7010000 -33.7280000   0.2000000 -51.1920000 -35.2060000   0.9990000
 -53.3430000 -34.9530000   0.8490000 -54.0690000 -34.1430000   0.9180000
 -53.4140000 -35.3760000  -0.1530000 -53.6570000 -36.0240000   1.8060000
 -53.2560000 -36.9350000   1.6300000 -54.3080000 -35.9480000   2.9460000
 -54.2900000 -36.9700000   3.7380000 -53.8080000 -37.8060000   3.4400000
 -54.7300000 -36.8750000   4.6420000 -54.9600000 -34.9070000   3.3610000
 -55.1290000 -34.1130000   2.7600000 -55.3830000 -34.9660000   4.2760000
 -49.8080000 -34.6010000   3.6430000 -49.2680000 -35.6410000   3.2670000
 -49.1190000 -33.6010000   4.1940000 -49.6210000 -32.7670000   4.4610000
 -47.6830000 -33.6510000   4.4610000 -47.1690000 -33.8730000   3.5250000
 -47.2240000 -32.2640000   4.9250000 -47.6530000 -32.0290000   5.9000000
 -46.1370000 -32.2420000   4.9900000 -47.5390000 -31.5080000   4.2050000
 -47.3180000 -34.7690000   5.4590000 -46.4200000 -35.5700000   5.1930000
 -48.0540000 -34.8830000   6.5760000 -48.7620000 -34.1840000   6.7490000
 -47.9060000 -35.9740000   7.5590000 -46.8830000 -35.9600000   7.9360000
 -48.8600000 -35.7120000   8.7380000 -48.6700000 -34.7070000   9.1150000
 -49.8910000 -35.7550000   8.3870000 -48.6820000 -36.7120000   9.8930000
 -48.8820000 -37.7210000   9.5320000 -47.6570000 -36.6730000  10.2610000
 -49.6520000 -36.4190000  11.0440000 -50.6660000 -36.4020000  10.6450000
 -49.5800000 -37.2280000  11.7710000 -49.3460000 -35.1390000  11.7190000
 -48.4390000 -34.7330000  11.5390000 -50.1220000 -34.4940000  12.5730000
 -49.7240000 -33.3790000  13.1150000 -48.8060000 -33.0110000  12.9100000
 -50.3070000 -32.9060000  13.7910000 -51.2990000 -34.9400000  12.9080000
 -51.6210000 -35.8140000  12.5180000 -51.8760000 -34.4380000  13.5670000
 -48.1220000 -37.3560000   6.9280000 -47.3150000 -38.2570000   7.1440000
 -49.1660000 -37.5150000   6.1130000 -49.8180000 -36.7490000   6.0200000
 -49.4370000 -38.7420000   5.3650000 -49.5490000 -39.5560000   6.0810000
 -50.7680000 -38.5940000   4.6200000 -50.7070000 -37.7900000   3.8870000
 -51.0000000 -39.5250000   4.1050000 -51.5670000 -38.3760000   5.3280000
 -48.2810000 -39.1260000   4.4210000 -47.8440000 -40.2780000   4.4310000
 -47.7380000 -38.1700000   3.6550000 -48.1650000 -37.2550000   3.6490000
 -46.5370000 -38.3810000   2.8400000 -46.7480000 -39.1710000   2.1190000
 -46.2050000 -37.1080000   2.0510000 -46.9840000 -36.9320000   1.3090000
 -46.1830000 -36.2520000   2.7260000 -44.8690000 -37.1950000   1.3560000
 -44.5670000 -37.9600000   0.2520000 -45.2240000 -38.4330000  -0.3520000
 -43.2470000 -37.8550000   0.0190000 -42.7310000 -38.3110000  -0.8120000
 -42.6680000 -37.0770000   0.9490000 -43.6910000 -36.6600000   1.8070000
 -43.5740000 -36.0530000   2.6920000 -45.3280000 -38.8510000   3.6750000
 -44.7050000 -39.8570000   3.3310000 -45.0110000 -38.1620000   4.7810000
 -45.5490000 -37.3350000   4.9960000 -43.9570000 -38.5740000   5.7290000
 -43.0040000 -38.5520000   5.2000000 -43.8460000 -37.5950000   6.9160000
 -44.8360000 -37.4290000   7.3410000 -42.9300000 -38.1060000   8.0360000
 -41.9420000 -38.3380000   7.6400000 -42.8350000 -37.3430000   8.8090000
 -43.3530000 -38.9970000   8.5000000 -43.2820000 -36.2480000   6.4520000
 -43.8990000 -35.8260000   5.6590000 -43.2790000 -35.5530000   7.2920000
 -42.2640000 -36.3700000   6.0820000 -44.1480000 -40.0180000   6.2030000
 -43.2170000 -40.8190000   6.1270000 -45.3440000 -40.3720000   6.6810000
 -46.0670000 -39.6690000   6.7390000 -45.6600000 -41.7300000   7.1390000
 -44.9390000 -41.9850000   7.9160000 -47.0600000 -41.7500000   7.7680000
 -47.1410000 -40.9250000   8.4760000 -47.8040000 -41.5990000   6.9860000
 -47.3460000 -43.0600000   8.5230000 -48.5250000 -43.4870000   8.5580000
 -46.4060000 -43.6510000   9.1090000 -45.5350000 -42.7940000   6.0290000
 -44.9920000 -43.8780000   6.2550000 -45.9980000 -42.4890000   4.8120000
 -46.4650000 -41.6030000   4.6830000 -45.8020000 -43.3370000   3.6380000
 -46.2300000 -44.3160000   3.8520000 -46.5690000 -42.7430000   2.4510000
 -46.1800000 -41.7570000   2.2000000 -46.4660000 -43.3980000   1.5850000
 -47.6270000 -42.6560000   2.7000000 -44.3090000 -43.5510000   3.3190000
 -43.8800000 -44.6940000   3.1510000 -43.5060000 -42.4800000   3.2900000
 -43.9220000 -41.5700000   3.4330000 -42.0540000 -42.5480000   3.0920000
 -41.8740000 -43.0470000   2.1400000 -41.4750000 -41.1220000   2.9980000
 -41.9150000 -40.6210000   2.1350000 -41.7690000 -40.5660000   3.8890000
 -39.9370000 -41.0620000   2.8830000 -39.4870000 -41.5200000   3.7640000
 -39.4060000 -41.7680000   1.6350000 -39.8630000 -41.3440000   0.7410000
 -38.3240000 -41.6450000   1.5790000 -39.6260000 -42.8350000   1.6810000
 -39.4800000 -39.6060000   2.8280000 -39.8210000 -39.0750000   3.7170000
 -38.3910000 -39.5600000   2.7910000 -39.8900000 -39.1230000   1.9410000
 -41.3660000 -43.3890000   4.1790000 -40.5900000 -44.2850000   3.8540000
 -41.6880000 -43.1530000   5.4600000 -42.3140000 -42.3810000   5.6410000
 -41.2330000 -43.9590000   6.6090000 -40.1530000 -43.8620000   6.7110000
 -41.9090000 -43.4150000   7.8850000 -41.6710000 -42.3570000   7.9930000
 -42.9890000 -43.4980000   7.7650000 -41.4900000 -44.1410000   9.1770000
 -41.4610000 -45.2190000   9.0220000 -40.4890000 -43.8110000   9.4570000
 -42.4600000 -43.8440000  10.3310000 -42.0320000 -44.2150000  11.2620000
 -42.5730000 -42.7640000  10.4310000 -43.7880000 -44.4570000  10.1100000
 -44.5270000 -43.8670000   9.7550000 -44.1580000 -45.7040000  10.3270000
 -45.3770000 -46.0370000  10.0400000 -45.9670000 -45.3120000   9.6570000
 -45.7190000 -46.9790000  10.1720000 -43.3590000 -46.6140000  10.8090000
 -42.4170000 -46.3590000  11.0690000 -43.6870000 -47.5550000  10.9680000
 -41.5410000 -45.4460000   6.4010000 -40.6480000 -46.2860000   6.4970000
 -42.7980000 -45.7560000   6.0770000 -43.4550000 -44.9910000   6.0220000
 -43.2910000 -47.1180000   5.8050000 -43.1410000 -47.7190000   6.7020000
 -44.8020000 -47.1090000   5.5030000 -44.9930000 -46.5220000   4.6050000
 -45.3740000 -48.5130000   5.2970000 -45.1440000 -49.1410000   6.1580000
 -46.4550000 -48.4520000   5.1760000 -44.9550000 -48.9650000   4.3980000
 -45.5130000 -46.5340000   6.5800000 -45.3580000 -45.5880000   6.5510000
 -42.5080000 -47.7930000   4.6720000 -42.0350000 -48.9170000   4.8330000
 -42.3400000 -47.1030000   3.5390000 -42.7710000 -46.1920000   3.4650000
 -41.5330000 -47.5530000   2.4010000 -41.9490000 -48.4920000   2.0370000
 -41.6670000 -46.5130000   1.2760000 -42.6940000 -46.5130000   0.9120000
 -41.4600000 -45.5200000   1.6760000 -40.7410000 -46.7440000   0.1090000
 -40.7790000 -47.8020000  -0.7720000 -41.4640000 -48.5440000  -0.8000000
 -39.7320000 -47.6840000  -1.6050000 -39.4990000 -48.3810000  -2.3970000
 -39.0050000 -46.5940000  -1.3060000 -39.6410000 -45.9930000  -0.2120000
 -39.3120000 -45.1060000   0.3080000 -40.0580000 -47.8170000   2.7760000
 -39.5160000 -48.8810000   2.4680000 -39.4140000 -46.8670000   3.4590000
 -39.9200000 -46.0190000   3.6720000 -37.9900000 -46.9000000   3.8070000
 -37.4300000 -47.1060000   2.8950000 -37.6110000 -45.4940000   4.3120000
 -37.9650000 -44.7520000   3.5970000 -38.1330000 -45.3200000   5.2530000
 -36.1060000 -45.2620000   4.5350000 -35.6900000 -46.0490000   5.1640000
 -35.3490000 -45.2150000   3.2080000 -35.8140000 -44.4920000   2.5390000
 -34.3180000 -44.9090000   3.3860000 -35.3480000 -46.2000000   2.7400000
 -35.8930000 -43.9260000   5.2410000 -36.4090000 -43.9290000   6.2020000
 -34.8290000 -43.7700000   5.4190000 -36.2800000 -43.1120000   4.6290000
 -37.6160000 -47.9900000   4.8300000 -36.5520000 -48.5990000   4.7150000
 -38.4710000 -48.2340000   5.8300000 -39.3150000 -47.6800000   5.8680000
 -38.1770000 -49.0820000   6.9910000 -37.3910000 -48.5780000   7.5540000
 -39.4110000 -49.1160000   7.9040000 -40.2820000 -49.4910000   7.3670000
 -39.2150000 -49.7590000   8.7620000 -39.6270000 -48.1110000   8.2670000
 -37.6250000 -50.4970000   6.6780000 -36.5390000 -50.8160000   7.1760000
 -38.2790000 -51.3520000   5.8600000 -39.5720000 -51.1650000   5.2130000
 -39.6460000 -50.2020000   4.7080000 -40.3670000 -51.2660000   5.9520000
 -39.6910000 -52.2930000   4.1900000 -39.2070000 -52.0000000   3.2590000
 -40.7300000 -52.5710000   4.0150000 -38.9030000 -53.4250000   4.8440000
 -38.5340000 -54.1380000   4.1070000 -39.5350000 -53.9300000   5.5740000
 -37.7690000 -52.6960000   5.5710000 -37.5640000 -53.2190000   6.5050000
 -36.4730000 -52.6760000   4.7450000 -35.5730000 -53.4740000   4.9990000
 -36.3380000 -51.7470000   3.7910000 -37.0960000 -51.0970000   3.6360000
 -35.1110000 -51.5850000   3.0030000 -34.8650000 -52.5560000   2.5710000
 -35.3940000 -50.6110000   1.8470000 -36.2590000 -50.9820000   1.2980000
 -35.6720000 -49.6500000   2.2780000 -34.2910000 -50.3650000   0.8260000
 -33.2070000 -51.2540000   0.6480000 -33.1280000 -52.1580000   1.2350000
 -32.1970000 -50.9670000  -0.2920000 -31.3650000 -51.6440000  -0.4130000
 -32.2870000 -49.8040000  -1.0890000 -31.3360000 -49.5380000  -2.0250000
 -30.6200000 -50.1770000  -2.0000000 -33.3840000 -48.9330000  -0.9350000
 -33.4530000 -48.0480000  -1.5500000 -34.3770000 -49.2110000   0.0220000
 -35.2090000 -48.5320000   0.1400000 -33.9200000 -51.1570000   3.8870000
 -32.8320000 -51.7250000   3.7810000 -34.1440000 -50.2290000   4.8260000
 -35.0530000 -49.7880000   4.8400000 -33.1810000 -49.8540000   5.8710000
 -32.2870000 -49.4610000   5.3870000 -33.7700000 -48.7350000   6.7400000
 -34.0010000 -47.8760000   6.1100000 -34.6920000 -49.0800000   7.2070000
 -32.8560000 -48.3500000   7.7480000 -33.2140000 -47.5900000   8.2130000
 -32.7410000 -51.0500000   6.7330000 -31.5430000 -51.3130000   6.8750000
 -33.7020000 -51.8040000   7.2820000 -34.6630000 -51.5290000   7.1420000
 -33.4490000 -53.0190000   8.0690000 -32.8730000 -52.7380000   8.9510000
 -34.7910000 -53.5970000   8.5410000 -35.3490000 -52.8160000   9.0580000
 -35.3730000 -53.9040000   7.6720000 -34.6300000 -54.7900000   9.4990000
 -35.4370000 -55.7470000   9.4060000 -33.7350000 -54.7640000  10.3780000
 -32.6310000 -54.0780000   7.2990000 -31.6430000 -54.6100000   7.8120000
 -33.0030000 -54.3640000   6.0470000 -33.8350000 -53.9240000   5.6800000
 -32.2460000 -55.2600000   5.1680000 -32.1200000 -56.2140000   5.6790000
 -33.0040000 -55.5310000   3.8620000 -33.3220000 -54.5910000   3.4120000
 -32.3030000 -56.0260000   3.1900000 -34.2070000 -56.4640000   4.0420000
 -33.8510000 -57.4160000   4.4370000 -34.8900000 -56.0370000   4.7770000
 -34.9570000 -56.7270000   2.7220000 -36.2080000 -56.8020000   2.7400000
 -34.3180000 -56.9250000   1.6540000 -30.8250000 -54.7520000   4.8640000
 -29.8830000 -55.5440000   4.9200000 -30.6300000 -53.4560000   4.5760000
 -31.4280000 -52.8400000   4.5160000 -29.2880000 -52.8980000   4.3710000
 -28.8230000 -53.4810000   3.5750000 -29.3470000 -51.4290000   3.9010000
 -29.9380000 -51.3690000   2.9870000 -29.8490000 -50.8390000   4.6680000
 -27.9470000 -50.8180000   3.6450000 -27.3390000 -50.8990000   4.5460000
 -27.2090000 -51.5060000   2.4910000 -27.8170000 -51.4750000   1.5870000
 -26.2630000 -50.9980000   2.3050000 -26.9880000 -52.5420000   2.7480000
 -28.0440000 -49.3330000   3.3100000 -27.0450000 -48.9200000   3.1670000
 -28.6210000 -49.1940000   2.3950000 -28.5200000 -48.8030000   4.1350000
 -28.4010000 -53.0620000   5.6140000 -27.2330000 -53.4130000   5.4710000
 -28.9430000 -52.8700000   6.8260000 -29.9040000 -52.5620000   6.8640000
 -28.2190000 -53.0950000   8.0930000 -27.3730000 -52.4080000   8.1280000
 -29.1560000 -52.7840000   9.2760000 -29.7380000 -51.8940000   9.0400000
 -29.8460000 -53.6150000   9.4210000 -28.3920000 -52.5300000  10.5860000
 -27.6460000 -53.3120000  10.7280000 -27.8750000 -51.5730000  10.5200000
 -29.3100000 -52.5300000  11.8170000 -29.7320000 -53.5280000  11.9350000
 -28.6980000 -52.3100000  12.6920000 -30.4100000 -51.5460000  11.7210000
 -30.5500000 -51.0930000  10.8300000 -31.2720000 -51.2440000  12.6790000
 -32.2300000 -50.3880000  12.4640000 -32.3460000 -49.9560000  11.5590000
 -32.8850000 -50.1650000  13.2010000 -31.2020000 -51.7800000  13.8630000
 -30.4770000 -52.4570000  14.0540000 -31.8720000 -51.5430000  14.5810000
 -27.6440000 -54.5180000   8.1740000 -26.4610000 -54.6970000   8.4660000
 -28.4670000 -55.5210000   7.8520000 -29.4220000 -55.2810000   7.6300000
 -28.0640000 -56.9310000   7.7620000 -27.5970000 -57.2080000   8.7070000
 -29.3240000 -57.8010000   7.5960000 -29.9870000 -57.6100000   8.4400000
 -29.8470000 -57.5180000   6.6820000 -29.0120000 -59.3040000   7.5370000
 -28.4190000 -59.5250000   6.6500000 -28.4350000 -59.5870000   8.4170000
 -30.2860000 -60.1470000   7.4930000 -30.6930000 -60.6570000   6.4560000
 -30.9770000 -60.3170000   8.6020000 -31.8190000 -60.8730000   8.5640000
 -30.6630000 -59.9070000   9.4700000 -27.0220000 -57.1820000   6.6550000
 -25.9860000 -57.7990000   6.9100000 -27.2630000 -56.6870000   5.4310000
 -28.1370000 -56.2050000   5.2790000 -26.3430000 -56.8650000   4.2870000
 -26.1230000 -57.9280000   4.1890000 -27.0030000 -56.4040000   2.9730000
 -27.3990000 -55.3960000   3.0890000 -26.2530000 -56.3940000   2.1820000
 -28.1270000 -57.3690000   2.5620000 -27.7180000 -58.3750000   2.4720000
 -28.8960000 -57.3830000   3.3350000 -28.7780000 -56.9840000   1.2290000
 -29.1050000 -55.9460000   1.2820000 -28.0370000 -57.0750000   0.4340000
 -29.9120000 -57.8900000   0.9490000 -29.6940000 -58.8760000   0.9260000
 -31.1960000 -57.5830000   0.8990000 -32.1060000 -58.5030000   0.9860000
 -31.8570000 -59.4760000   1.0960000 -33.0600000 -58.1960000   1.1140000
 -31.6440000 -56.3680000   0.7920000 -31.0060000 -55.5900000   0.7070000
 -32.6410000 -56.2280000   0.8800000 -24.9840000 -56.2010000   4.5110000
 -23.9640000 -56.8140000   4.2190000 -24.9380000 -55.0050000   5.0980000
 -25.8140000 -54.5420000   5.2940000 -23.6940000 -54.3290000   5.4860000
 -23.0930000 -54.1990000   4.5860000 -24.0290000 -52.9330000   6.0430000
 -24.5480000 -52.3640000   5.2710000 -24.7100000 -53.0500000   6.8860000
 -22.8060000 -52.1250000   6.5200000 -22.2940000 -52.6700000   7.3130000
 -21.8120000 -51.8400000   5.3920000 -22.3100000 -51.3200000   4.5730000
 -21.0010000 -51.2180000   5.7710000 -21.3780000 -52.7700000   5.0250000
 -23.2700000 -50.7880000   7.0910000 -23.9490000 -50.9590000   7.9260000
 -22.4050000 -50.2310000   7.4510000 -23.7810000 -50.2070000   6.3230000
 -22.8600000 -55.1690000   6.4690000 -21.6590000 -55.3350000   6.2610000
 -23.4890000 -55.7430000   7.5000000 -24.4710000 -55.5530000   7.6380000
 -22.8270000 -56.6710000   8.4190000 -21.9840000 -56.1510000   8.8740000
 -23.8010000 -57.0460000   9.5420000 -24.6570000 -57.5900000   9.1420000
 -23.2910000 -57.6780000  10.2690000 -24.1520000 -56.1450000  10.0450000
 -22.2600000 -57.9110000   7.6950000 -21.1000000 -58.2670000   7.9030000
 -23.0440000 -58.5380000   6.8070000 -23.9980000 -58.2240000   6.7080000
 -22.6000000 -59.6660000   5.9810000 -22.2690000 -60.4610000   6.6490000
 -23.7990000 -60.1980000   5.1860000 -24.1530000 -59.4450000   4.4820000
 -23.5010000 -61.0870000   4.6310000 -24.6070000 -60.4620000   5.8670000
 -21.4050000 -59.3170000   5.0660000 -20.4200000 -60.0580000   5.0250000
 -21.4590000 -58.1710000   4.3690000 -22.3180000 -57.6410000   4.4220000
 -20.3550000 -57.6240000   3.5540000 -20.0990000 -58.3350000   2.7690000
 -20.7810000 -56.2940000   2.9040000 -21.1890000 -55.6410000   3.6750000
 -19.9010000 -55.8020000   2.4900000 -21.8100000 -56.4540000   1.7760000
 -21.3480000 -56.9500000   0.9220000 -22.6520000 -57.0590000   2.1100000
 -22.3130000 -55.0660000   1.3610000 -22.6970000 -54.5550000   2.2430000
 -21.4760000 -54.4940000   0.9580000 -23.3830000 -55.1530000   0.3550000
 -23.6480000 -56.0670000   0.0190000 -24.0870000 -54.1630000  -0.1510000
 -25.0260000 -54.4550000  -0.9990000 -25.1420000 -55.4370000  -1.2040000
 -25.6090000 -53.7490000  -1.4250000 -23.8850000 -52.9160000   0.1700000
 -23.1480000 -52.6900000   0.8230000 -24.4530000 -52.1770000  -0.2200000
 -19.0850000 -57.4100000   4.3810000 -18.0130000 -57.8550000   3.9790000
 -19.2080000 -56.7570000   5.5390000 -20.1200000 -56.4000000   5.7840000
 -18.0960000 -56.4940000   6.4570000 -17.3200000 -55.9780000   5.8900000
 -18.5860000 -55.5430000   7.5650000 -18.9850000 -54.6430000   7.0970000
 -19.4020000 -56.0290000   8.1010000 -17.5150000 -55.1260000   8.5920000
 -17.1440000 -56.0090000   9.1120000 -16.3360000 -54.3950000   7.9490000
 -16.6920000 -53.5430000   7.3690000 -15.6550000 -54.0410000   8.7230000
 -15.7840000 -55.0750000   7.2990000 -18.1440000 -54.1890000   9.6230000
 -18.9740000 -54.6920000  10.1190000 -17.4030000 -53.9170000  10.3750000
 -18.5100000 -53.2850000   9.1360000 -17.4690000 -57.7890000   7.0060000
 -16.2470000 -57.9050000   7.0530000 -18.2850000 -58.7840000   7.3640000
 -19.2810000 -58.6120000   7.3550000 -17.8250000 -60.1300000   7.7310000
 -17.1400000 -60.0350000   8.5730000 -19.0170000 -60.9790000   8.2060000
 -19.4750000 -60.4750000   9.0570000 -19.7560000 -61.0520000   7.4080000
 -18.6030000 -62.3980000   8.6230000 -18.1770000 -62.9130000   7.7620000
 -17.8300000 -62.3280000   9.3880000 -19.7870000 -63.2180000   9.1750000
 -20.5520000 -62.7130000  10.0340000 -19.9510000 -64.3950000   8.7690000
 -17.0360000 -60.8080000   6.5960000 -15.9080000 -61.2480000   6.8130000
 -17.5900000 -60.8620000   5.3780000 -18.5230000 -60.4950000   5.2560000
 -16.9120000 -61.4180000   4.2030000 -16.7000000 -62.4690000   4.3980000
 -17.8640000 -61.3390000   3.0040000 -18.1080000 -60.3010000   2.7800000
 -17.3910000 -61.7900000   2.1320000 -18.7830000 -61.8830000   3.2260000
 -15.5640000 -60.7240000   3.9150000 -14.5450000 -61.3910000   3.7130000
 -15.5470000 -59.3850000   3.9500000 -16.4290000 -58.9120000   4.0830000
 -14.3420000 -58.5570000   3.8510000 -13.8790000 -58.7470000   2.8830000
 -14.7690000 -57.0750000   3.9000000 -15.3750000 -56.8570000   3.0200000
 -15.3990000 -56.9280000   4.7770000 -13.6180000 -56.0540000   3.9800000
 -13.0030000 -56.2620000   4.8550000 -12.7340000 -56.0760000   2.7340000
 -13.3330000 -55.8480000   1.8520000 -11.9470000 -55.3280000   2.8330000
 -12.2700000 -57.0550000   2.6160000 -14.1880000 -54.6470000   4.1300000
 -14.8130000 -54.5910000   5.0210000 -13.3670000 -53.9370000   4.2380000
 -14.7820000 -54.3820000   3.2560000 -13.3010000 -58.9110000   4.9300000
 -12.1330000 -59.1070000   4.6000000 -13.7110000 -59.0220000   6.2010000
 -14.6820000 -58.8250000   6.3980000 -12.8400000 -59.3860000   7.3330000
 -12.0020000 -58.6890000   7.3510000 -13.6340000 -59.2230000   8.6460000
 -13.9390000 -58.1810000   8.7420000 -14.5390000 -59.8270000   8.5900000
 -12.8810000 -59.6300000   9.9250000 -13.5560000 -59.4860000  10.7690000
 -12.6320000 -60.6900000   9.8770000 -11.6020000 -58.8190000  10.1770000
 -10.8880000 -58.9910000   9.3720000 -11.8500000 -57.7580000  10.2170000
 -10.9770000 -59.2540000  11.5090000 -11.7070000 -59.1000000  12.3040000
 -10.7600000 -60.3210000  11.4610000  -9.7330000 -58.4960000  11.8100000
  -9.9140000 -57.5050000  11.8800000  -9.3350000 -58.7940000  12.6880000
  -9.0330000 -58.6380000  11.0960000 -12.2390000 -60.7880000   7.1850000
 -11.0260000 -60.9450000   7.3110000 -13.0620000 -61.7930000   6.8890000
 -14.0470000 -61.5850000   6.8160000 -12.6210000 -63.1770000   6.6510000
 -12.1250000 -63.5420000   7.5500000 -13.8330000 -64.0820000   6.3650000
 -14.4520000 -63.6190000   5.5960000 -13.4800000 -65.0340000   5.9700000
 -14.7020000 -64.3580000   7.6040000 -15.0930000 -63.4140000   7.9830000
 -15.5540000 -64.9630000   7.2940000 -13.9550000 -65.0930000   8.7370000
 -14.2510000 -64.8290000   9.9280000 -13.0820000 -65.9520000   8.4590000
 -11.5830000 -63.2790000   5.5200000 -10.5070000 -63.8510000   5.7150000
 -11.8700000 -62.6900000   4.3510000 -12.7720000 -62.2500000   4.2370000
 -10.9250000 -62.6430000   3.2310000 -10.6020000 -63.6630000   3.0220000
 -11.6560000 -62.1060000   1.9870000 -12.5850000 -62.6580000   1.8440000
 -11.9090000 -61.0560000   2.1370000 -10.8300000 -62.2700000   0.7180000
 -10.2840000 -63.3250000   0.4310000 -10.7130000 -61.2380000  -0.0880000
 -10.1980000 -61.3680000  -0.9470000 -11.1860000 -60.3690000   0.1160000
  -9.6570000 -61.8280000   3.5640000  -8.5470000 -62.2350000   3.2280000
  -9.8120000 -60.6960000   4.2590000 -10.7520000 -60.3980000   4.4770000
  -8.7180000 -59.8300000   4.7110000  -8.1700000 -59.4720000   3.8410000
  -9.1360000 -58.9690000   5.2330000  -7.7250000 -60.5200000   5.6490000
  -6.5180000 -60.3490000   5.4870000  -8.2100000 -61.3370000   6.5880000
  -9.2120000 -61.3900000   6.7030000  -7.3660000 -62.1600000   7.4640000
  -6.7320000 -61.5110000   8.0670000  -8.0000000 -62.7400000   8.1350000
  -6.4710000 -63.1310000   6.6840000  -5.2570000 -63.1640000   6.8930000
  -7.0560000 -63.8780000   5.7400000  -8.0580000 -63.8060000   5.6280000
  -6.3270000 -64.7700000   4.8350000  -5.7780000 -65.4940000   5.4380000
  -7.3410000 -65.5410000   3.9820000  -7.9180000 -64.8560000   3.3610000
  -6.8140000 -66.2450000   3.3370000  -8.0200000 -66.0970000   4.6280000
  -5.2950000 -64.0170000   3.9700000  -4.1320000 -64.4210000   3.8970000
  -5.7030000 -62.8950000   3.3570000  -6.6830000 -62.6590000   3.4330000
  -4.8400000 -61.9990000   2.5660000  -4.4520000 -62.5560000   1.7130000
  -5.6930000 -60.8300000   2.0360000  -6.5520000 -61.2380000   1.5050000
  -6.0620000 -60.2470000   2.8800000  -4.9320000 -59.9010000   1.0770000
  -4.0500000 -59.4900000   1.5680000  -4.6110000 -60.4760000   0.2090000
  -5.8190000 -58.7420000   0.6030000  -5.2830000 -58.1940000  -0.1730000
  -6.7240000 -59.1490000   0.1520000  -6.1230000 -57.7960000   1.7010000
  -5.3240000 -57.3710000   2.1490000  -7.3060000 -57.4010000   2.1360000
  -7.3910000 -56.5330000   3.1010000  -6.5540000 -56.1540000   3.5200000
  -8.2910000 -56.2200000   3.4370000  -8.4180000 -57.8600000   1.6380000
  -8.3780000 -58.5220000   0.8760000  -9.3140000 -57.5380000   1.9760000
  -3.6250000 -61.5150000   3.3640000  -2.4940000 -61.6570000   2.9040000
  -3.8450000 -60.9820000   4.5680000  -4.8030000 -60.8850000   4.8740000
  -2.7850000 -60.5060000   5.4620000  -2.1950000 -59.7710000   4.9140000
  -3.4310000 -59.8030000   6.6700000  -4.0630000 -58.9940000   6.3050000
  -4.0710000 -60.5200000   7.1840000  -2.4300000 -59.2290000   7.6900000
  -1.7970000 -60.0270000   8.0770000  -1.5410000 -58.1420000   7.0820000
  -2.1550000 -57.3680000   6.6210000  -0.9210000 -57.6940000   7.8580000
  -0.8820000 -58.5750000   6.3300000  -3.2010000 -58.6280000   8.8640000
  -3.7890000 -59.4050000   9.3510000  -2.5050000 -58.2090000   9.5910000
  -3.8700000 -57.8440000   8.5080000  -1.8230000 -61.6280000   5.8880000
  -0.6090000 -61.4380000   5.8400000  -2.3460000 -62.8000000   6.2640000
  -3.3510000 -62.8880000   6.3150000  -1.5390000 -63.9730000   6.6070000
  -0.8890000 -63.7080000   7.4400000  -2.4710000 -65.0960000   7.0750000
  -3.1490000 -65.3850000   6.2710000  -1.8790000 -65.9620000   7.3690000
  -3.0540000 -64.7590000   7.9320000  -0.6340000 -64.4270000   5.4420000
   0.5560000 -64.6830000   5.6370000  -1.1770000 -64.4890000   4.2210000
  -2.1670000 -64.3130000   4.1270000  -0.4090000 -64.7720000   3.0030000
   0.1090000 -65.7200000   3.1480000  -1.3770000 -64.9300000   1.8170000
  -2.1490000 -65.6520000   2.0810000  -1.8670000 -63.9750000   1.6320000
  -0.7050000 -65.3850000   0.5130000  -1.4710000 -65.4440000  -0.2610000
   0.0060000 -64.6190000   0.2060000   0.0070000 -66.7530000   0.6120000
   0.9830000 -66.9820000  -0.1430000  -0.4120000 -67.6250000   1.4130000
   0.6710000 -63.7060000   2.7320000   1.8240000 -64.0450000   2.4530000
   0.3260000 -62.4180000   2.8610000  -0.6390000 -62.1970000   3.0560000
   1.2710000 -61.3070000   2.6970000   1.7450000 -61.4200000   1.7210000
   0.5260000 -59.9590000   2.6900000  -0.4760000 -60.1090000   2.2870000
   0.4150000 -59.5940000   3.7110000   1.2140000 -58.9020000   1.8430000
   2.4210000 -58.3150000   2.2730000   2.8350000 -58.5680000   3.2380000
   3.1120000 -57.4200000   1.4350000   4.0550000 -57.0030000   1.7570000
   2.5820000 -57.0850000   0.1690000   3.2540000 -56.2360000  -0.6540000
   4.0550000 -55.9020000  -0.2420000   1.3550000 -57.6430000  -0.2470000
   0.9530000 -57.3800000  -1.2140000   0.6750000 -58.5510000   0.5890000
  -0.2520000 -58.9920000   0.2550000   2.4050000 -61.3270000   3.7370000
   3.5540000 -61.0530000   3.3980000   2.1240000 -61.6990000   4.9900000
   1.1580000 -61.8700000   5.2290000   3.1260000 -61.7860000   6.0600000
   3.5660000 -60.7970000   6.1900000   2.4290000 -62.1590000   7.3770000
   1.6380000 -61.4350000   7.5770000   1.9670000 -63.1410000   7.2770000
   3.3590000 -62.1890000   8.5650000   4.1780000 -63.2320000   8.9420000
   4.2190000 -64.1490000   8.5220000   4.9030000 -62.8330000  10.0020000
   5.6310000 -63.4450000  10.5120000   4.5890000 -61.5670000  10.3360000
   3.6120000 -61.1500000   9.4210000   3.1480000 -60.1750000   9.3810000
   4.2800000 -62.7490000   5.7200000   5.4470000 -62.4290000   5.9600000
   3.9850000 -63.9030000   5.1110000   3.0140000 -64.1240000   4.9460000
   5.0030000 -64.8260000   4.5980000   5.6490000 -65.1200000   5.4250000
   4.3060000 -66.0900000   4.0800000   3.6570000 -65.8520000   3.2380000
   5.0560000 -66.8120000   3.7570000   3.7110000 -66.5370000   4.8770000
   5.9050000 -64.1730000   3.5280000   7.1330000 -64.2190000   3.6410000
   5.3070000 -63.5000000   2.5340000   4.2970000 -63.5050000   2.5110000
   6.0220000 -62.7510000   1.4830000   6.6960000 -63.4430000   0.9770000
   4.9930000 -62.2320000   0.4550000   4.4460000 -63.0830000   0.0490000
   4.2700000 -61.5920000   0.9620000   5.5860000 -61.4280000  -0.7160000
   4.7590000 -61.0710000  -1.3290000   6.1110000 -60.5570000  -0.3240000
   6.5320000 -62.2550000  -1.6030000   7.4050000 -62.5750000  -1.0330000
   6.0010000 -63.1470000  -1.9350000   6.9880000 -61.4790000  -2.8500000
   7.4740000 -62.1850000  -3.5230000   6.1040000 -61.0950000  -3.3600000
   7.9310000 -60.3660000  -2.5260000   8.7480000 -60.7100000  -2.0420000
   8.2550000 -59.9060000  -3.3650000   7.4960000 -59.6590000  -1.9500000
   6.8950000 -61.6280000   2.0570000   8.0630000 -61.5160000   1.6920000
   6.3590000 -60.8330000   2.9820000   5.3780000 -60.9590000   3.1890000
   7.0850000 -59.7850000   3.7040000   7.4890000 -59.0830000   2.9750000
   6.0890000 -59.0210000   4.5850000   5.6530000 -59.6900000   5.3280000
   6.6000000 -58.2060000   5.0970000   5.2960000 -58.6020000   3.9660000
   8.2670000 -60.3390000   4.5260000   9.3580000 -59.7700000   4.5030000
   8.0710000 -61.4700000   5.2150000   7.1390000 -61.8610000   5.2190000
   9.1260000 -62.1860000   5.9560000   9.5470000 -61.5020000   6.6930000
   8.5560000 -63.3960000   6.7210000   8.1110000 -64.0980000   6.0160000
   9.6140000 -64.1350000   7.5400000  10.1150000 -63.4370000   8.2120000
   9.1410000 -64.9220000   8.1270000  10.3470000 -64.5960000   6.8790000
   7.5610000 -62.9790000   7.6300000   6.7980000 -62.7170000   7.1090000
  10.2750000 -62.6120000   5.0340000  11.4320000 -62.2890000   5.2960000
   9.9670000 -63.3030000   3.9300000   9.0030000 -63.5600000   3.7730000
  10.9470000 -63.6740000   2.8980000  11.6940000 -64.3250000   3.3520000
  10.2350000 -64.4790000   1.7980000   9.7920000 -65.3620000   2.2570000
   9.4330000 -63.8800000   1.3660000  11.1870000 -64.9160000   0.6760000
  11.5540000 -64.0320000   0.1530000  12.0440000 -65.4220000   1.1200000
  10.5030000 -65.8680000  -0.3230000   9.9750000 -66.9290000   0.0930000
  10.5070000 -65.5730000  -1.5440000  11.7020000 -62.4510000   2.3370000
  12.9320000 -62.4420000   2.2900000  10.9690000 -61.4020000   1.9520000
   9.9640000 -61.4890000   2.0050000  11.5070000 -60.1320000   1.4510000
  12.0420000 -60.3270000   0.5210000  10.3050000 -59.2310000   1.1280000
   9.7370000 -59.6850000   0.3160000   9.6510000 -59.1930000   2.0000000
  10.6230000 -57.8120000   0.7420000  11.3730000 -57.4010000  -0.3360000
  11.8460000 -57.9940000  -1.0020000  11.3660000 -56.0560000  -0.3560000
  11.8670000 -55.4490000  -1.0960000  10.6460000 -55.5740000   0.6720000
  10.1810000 -56.6860000   1.3840000   9.5550000 -56.6640000   2.2630000
  12.5110000 -59.4750000   2.4230000  13.6200000 -59.1140000   2.0150000
  12.1630000 -59.3820000   3.7140000  11.2370000 -59.6850000   3.9770000
  13.0570000 -58.9210000   4.7820000  13.3490000 -57.8940000   4.5600000
  12.2750000 -58.9220000   6.1120000  11.4620000 -58.2000000   6.0400000
  11.8290000 -59.9080000   6.2470000  13.1120000 -58.6140000   7.3680000
  13.9340000 -59.3250000   7.4470000  13.6820000 -57.1970000   7.3560000
  12.8680000 -56.4750000   7.3020000  14.2540000 -57.0230000   8.2680000
  14.3480000 -57.0640000   6.5030000  12.2390000 -58.7610000   8.6130000
  11.8500000 -59.7780000   8.6690000  12.8340000 -58.5660000   9.5050000
  11.4060000 -58.0590000   8.5740000  14.3500000 -59.7550000   4.8610000
  15.4450000 -59.1870000   4.8580000  14.2370000 -61.0880000   4.8980000
  13.3120000 -61.4930000   4.9350000  15.3900000 -62.0030000   4.9310000
  15.9900000 -61.7610000   5.8080000  14.9330000 -63.4580000   5.0730000
  14.2810000 -63.7210000   4.2410000  15.8070000 -64.1090000   5.0520000
  14.2450000 -63.6430000   6.3000000  13.9700000 -64.5610000   6.3550000
  16.3070000 -61.8680000   3.7070000  17.5310000 -61.8940000   3.8450000
  15.7420000 -61.6880000   2.5070000  14.7370000 -61.7570000   2.4320000
  16.5120000 -61.3900000   1.2880000  17.2390000 -62.1900000   1.1460000
  15.6160000 -61.3700000   0.0370000  14.8070000 -60.6540000   0.1780000
  16.3750000 -61.0200000  -1.2440000  17.2450000 -61.6690000  -1.3510000
  15.7260000 -61.1490000  -2.1100000  16.7040000 -59.9810000  -1.2150000
  15.0710000 -62.6570000  -0.1600000  14.4200000 -62.5980000  -0.8630000
  17.3130000 -60.0920000   1.4290000  18.5140000 -60.0880000   1.1530000
  16.6880000 -58.9940000   1.8770000  15.7030000 -59.0430000   2.0940000
  17.3920000 -57.7230000   2.0900000  17.8570000 -57.4560000   1.1410000
  16.3960000 -56.6060000   2.4540000  15.6400000 -56.5300000   1.6720000
  15.8920000 -56.8800000   3.3820000  17.0680000 -55.2280000   2.6450000
  17.8660000 -55.3010000   3.3840000  17.6520000 -54.6750000   1.3430000
  16.8800000 -54.6330000   0.5750000  18.0430000 -53.6720000   1.5120000
  18.4740000 -55.3060000   1.0030000  16.0560000 -54.2220000   3.1770000
  15.6800000 -54.5740000   4.1380000  16.5330000 -53.2540000   3.3250000
  15.2290000 -54.1170000   2.4740000  18.5280000 -57.8300000   3.1230000
  19.6300000 -57.3540000   2.8520000  18.2940000 -58.4450000   4.2880000
  17.3780000 -58.8310000   4.4680000  19.3290000 -58.5770000   5.3270000
  19.7210000 -57.5800000   5.5280000  18.7340000 -59.0860000   6.6460000
  19.5090000 -59.0640000   7.4110000  17.9280000 -58.4200000   6.9530000
  18.2350000 -60.4050000   6.5270000  17.9320000 -60.6870000   7.3930000
  20.5200000 -59.4350000   4.8670000  21.6720000 -59.0690000   5.1140000
  20.2700000 -60.5230000   4.1290000  19.3070000 -60.8070000   4.0220000
  21.3030000 -61.3060000   3.4360000  22.0060000 -61.6740000   4.1830000
  20.6540000 -62.5220000   2.7490000  20.1680000 -63.1370000   3.5070000
  19.8810000 -62.1700000   2.0660000  21.6210000 -63.4030000   1.9410000
  21.0490000 -64.2260000   1.5120000  22.0120000 -62.8180000   1.1080000
  22.7910000 -63.9880000   2.7620000  22.6540000 -64.2040000   3.9910000
  23.8570000 -64.2780000   2.1650000  22.1120000 -60.4540000   2.4370000
  23.3440000 -60.4830000   2.4530000  21.4250000 -59.6790000   1.5850000
  20.4170000 -59.7360000   1.6230000  22.0160000 -58.8040000   0.5560000
  22.6950000 -59.4040000  -0.0510000  20.8640000 -58.3230000  -0.3510000
  20.3110000 -59.2060000  -0.6710000  20.1700000 -57.7110000   0.2260000
  21.2690000 -57.5730000  -1.6320000  22.2260000 -57.9480000  -1.9970000
  20.5150000 -57.7930000  -2.3880000  21.3260000 -56.0460000  -1.4550000
  20.4160000 -55.7100000  -0.9580000  22.1860000 -55.7720000  -0.8440000
  21.4240000 -55.3630000  -2.8280000  22.3520000 -55.6680000  -3.3120000
  20.6000000 -55.7140000  -3.4480000  21.3680000 -53.8780000  -2.7090000
  22.1340000 -53.5210000  -2.1560000  21.4140000 -53.4440000  -3.6200000
  20.5040000 -53.5770000  -2.2820000  22.8550000 -57.6550000   1.1390000
  23.8970000 -57.3130000   0.5830000  22.4260000 -57.0660000   2.2570000
  21.5300000 -57.3590000   2.6190000  23.1040000 -55.9500000   2.9290000
  23.2460000 -55.1480000   2.2050000  22.1770000 -55.4250000   4.0330000
  21.9790000 -56.2080000   4.7640000  22.6480000 -54.5810000   4.5370000
  21.2330000 -55.0940000   3.5990000  24.4980000 -56.2980000   3.4950000
  25.4290000 -55.4980000   3.3790000  24.6600000 -57.4850000   4.0980000
  23.8570000 -58.0950000   4.1460000  25.8740000 -57.8850000   4.8390000
  25.9910000 -57.1850000   5.6660000  25.6430000 -59.2750000   5.4620000
  24.7410000 -59.2310000   6.0740000  25.4770000 -60.0150000   4.6790000
  26.8100000 -59.7330000   6.3510000  27.7090000 -59.8440000   5.7450000
  26.9910000 -58.9820000   7.1200000  26.4940000 -61.0760000   7.0210000
  25.6020000 -60.9700000   7.6380000  26.3080000 -61.8270000   6.2530000
  27.6720000 -61.5200000   7.8960000  28.5610000 -61.6070000   7.2710000
  27.8640000 -60.7500000   8.6430000  27.3970000 -62.8180000   8.5680000
  27.2310000 -63.5530000   7.8950000  28.1790000 -63.1020000   9.1400000
  26.5870000 -62.7570000   9.1690000  27.1890000 -57.7820000   4.0320000
  28.1100000 -57.1240000   4.5220000  27.3120000 -58.3330000   2.8040000
  26.3890000 -59.2430000   2.1370000  25.3720000 -58.8530000   2.1070000
  26.4090000 -60.2110000   2.6390000  26.9130000 -59.4080000   0.7150000
  26.5140000 -58.6120000   0.0870000  26.6610000 -60.3850000   0.3020000
  28.4200000 -59.2330000   0.8850000  28.8980000 -58.8970000  -0.0350000
  28.8540000 -60.1800000   1.2070000  28.5450000 -58.2110000   2.0200000
  29.3920000 -58.5030000   2.6410000  28.8150000 -56.7830000   1.5120000
  29.9780000 -56.3920000   1.4180000  27.7810000 -55.9750000   1.2320000
  26.8410000 -56.3310000   1.3300000  27.9530000 -54.5520000   0.9050000
  28.6500000 -54.4740000   0.0700000  26.6140000 -53.9550000   0.4500000
  25.8620000 -54.0580000   1.2320000  26.7470000 -52.8970000   0.2250000
  26.2690000 -54.4560000  -0.4550000  28.5590000 -53.7570000   2.0780000
  29.5250000 -53.0140000   1.8900000  28.0240000 -53.9440000   3.2930000
  27.2200000 -54.5510000   3.3640000  28.5570000 -53.3560000   4.5300000
  28.5550000 -52.2700000   4.4290000  27.6570000 -53.7470000   5.7190000
  27.5530000 -54.8320000   5.7260000  28.1510000 -53.4630000   6.6480000
  26.2530000 -53.1130000   5.6960000  25.8230000 -53.2030000   4.6980000
  25.3310000 -53.8400000   6.6750000  25.7330000 -53.7760000   7.6870000
  24.3390000 -53.3910000   6.6510000  25.2440000 -54.8880000   6.3870000
  26.2930000 -51.6350000   6.0840000  26.8780000 -51.0710000   5.3580000
  25.2790000 -51.2330000   6.0980000  26.7350000 -51.5150000   7.0730000
  30.0170000 -53.7740000   4.7850000  30.8650000 -52.9250000   5.0620000
  30.3220000 -55.0700000   4.6580000  29.5690000 -55.7170000   4.4730000
  31.6830000 -55.6130000   4.7780000  32.0550000 -55.3750000   5.7740000
  31.6370000 -57.1460000   4.6540000  30.9770000 -57.5360000   5.4300000
  31.2290000 -57.4180000   3.6810000  33.0210000 -57.7910000   4.8170000
  33.6460000 -57.5230000   3.9650000  33.4870000 -57.3860000   5.7160000
  32.9520000 -59.3280000   4.9250000  33.6980000 -59.9090000   5.7520000
  32.1810000 -59.9760000   4.1750000  32.6690000 -54.9840000   3.7740000
  33.7250000 -54.4890000   4.1690000  32.3280000 -54.9670000   2.4820000
  31.4580000 -55.4010000   2.2100000  33.1530000 -54.3700000   1.4230000
  34.1370000 -54.8350000   1.4600000  32.5400000 -54.6940000   0.0560000
  32.3600000 -55.7670000  -0.0060000  31.5800000 -54.1860000  -0.0400000
  33.4670000 -54.2770000  -1.0950000  33.2940000 -53.1580000  -1.6270000
  34.3550000 -55.0730000  -1.4800000  33.3610000 -52.8540000   1.6030000
  34.4430000 -52.3300000   1.3260000  32.3470000 -52.1190000   2.0760000
  31.4580000 -52.5740000   2.2310000  32.4990000 -50.7260000   2.5050000
  32.9210000 -50.1670000   1.6700000  31.1140000 -50.1250000   2.8080000
  30.4860000 -50.2320000   1.9240000  30.6510000 -50.6950000   3.6140000
  31.1430000 -48.6410000   3.2190000  31.7220000 -48.5300000   4.1360000
  31.7410000 -47.7420000   2.1330000  31.1990000 -47.8740000   1.1960000
  31.6650000 -46.6970000   2.4350000  32.7980000 -47.9670000   1.9890000
  29.7190000 -48.1660000   3.4890000  29.2740000 -48.7710000   4.2790000
  29.7290000 -47.1250000   3.8100000  29.1130000 -48.2560000   2.5870000
  33.5060000 -50.5780000   3.6580000  34.4900000 -49.8560000   3.5070000
  33.3150000 -51.2990000   4.7720000  32.5000000 -51.8930000   4.8160000
  34.2170000 -51.2650000   5.9430000  34.2270000 -50.2460000   6.3300000
  33.6570000 -52.1990000   7.0370000  32.6610000 -51.8520000   7.3130000
  33.5520000 -53.2030000   6.6260000  34.5060000 -52.2990000   8.3170000
  34.0010000 -52.9780000   9.0050000  35.4780000 -52.7310000   8.0780000
  34.7110000 -50.9540000   9.0260000  35.2470000 -50.2750000   8.3620000
  33.7350000 -50.5300000   9.2590000  35.4870000 -51.1220000  10.2700000
  35.7960000 -52.0580000  10.4930000  35.8150000 -50.1770000  11.1330000
  36.5160000 -50.4690000  12.1900000  36.8050000 -51.4220000  12.3610000
  36.7670000 -49.7500000  12.8540000  35.4630000 -48.9340000  10.9670000
  34.9040000 -48.6820000  10.1640000  35.7150000 -48.2300000  11.6470000
  35.6660000 -51.6030000   5.5720000  36.5810000 -50.8750000   5.9530000
  35.8670000 -52.6670000   4.7920000  35.0610000 -53.2250000   4.5490000
  37.1770000 -53.0780000   4.2760000  37.8330000 -53.2380000   5.1310000
  37.0250000 -54.4190000   3.5320000  36.6380000 -55.1630000   4.2280000
  36.2920000 -54.2950000   2.7350000  38.3180000 -54.9670000   2.9010000
  38.0780000 -55.8950000   2.3820000  38.6930000 -54.2680000   2.1530000
  39.4210000 -55.2620000   3.9190000  39.5550000 -56.3670000   4.4290000
  40.2530000 -54.2980000   4.2610000  40.9830000 -54.5080000   4.9260000
  40.1390000 -53.3680000   3.8830000  37.8310000 -51.9980000   3.3940000
  39.0320000 -51.7570000   3.5120000  37.0570000 -51.3580000   2.5110000
  36.0900000 -51.6350000   2.4310000  37.5390000 -50.3130000   1.6010000
  38.3810000 -50.7000000   1.0270000  36.7390000 -50.0700000   0.9010000
  37.9770000 -49.0110000   2.2840000  38.9810000 -48.4190000   1.8890000
  37.2310000 -48.5460000   3.2930000  36.4020000 -49.0670000   3.5420000
  37.4690000 -47.2550000   3.9600000  37.4180000 -46.4680000   3.2080000
  36.3660000 -47.0050000   5.0090000  36.2920000 -47.8900000   5.6410000
  36.6600000 -46.1730000   5.6490000  34.9810000 -46.6900000   4.4140000
  34.7640000 -47.3740000   3.5930000  33.9100000 -46.8700000   5.4900000
  34.0990000 -46.1950000   6.3240000  32.9260000 -46.6570000   5.0710000
  33.9170000 -47.8990000   5.8480000  34.8970000 -45.2650000   3.8720000
  35.6550000 -45.1050000   3.1060000  33.9170000 -45.1130000   3.4190000
  35.0380000 -44.5440000   4.6770000  38.8560000 -47.1290000   4.6140000
  39.5340000 -46.1180000   4.4270000  39.2720000 -48.1280000   5.4020000
  38.6840000 -48.9460000   5.4780000  40.4360000 -48.0110000   6.2950000
  40.2810000 -47.1080000   6.8850000  40.4800000 -49.1830000   7.3010000
  40.6200000 -50.1190000   6.7610000  41.3460000 -49.0460000   7.9480000
  39.2260000 -49.3290000   8.1890000  38.3470000 -49.4700000   7.5600000
  39.3700000 -50.5600000   9.0820000  40.2300000 -50.4480000   9.7420000
  38.4690000 -50.6890000   9.6820000  39.5040000 -51.4480000   8.4640000
  38.9930000 -48.1110000   9.0860000  38.7580000 -47.2370000   8.4790000
  38.1490000 -48.2990000   9.7490000  39.8820000 -47.9100000   9.6840000
  41.7850000 -47.7640000   5.5730000  42.5100000 -46.8660000   6.0080000
  42.1210000 -48.4430000   4.4520000  41.5240000 -49.6770000   3.9560000
  40.6780000 -49.4420000   3.3110000  41.2070000 -50.3400000   4.7610000
  42.6140000 -50.3620000   3.1390000  42.1950000 -51.0080000   2.3670000
  43.2720000 -50.9250000   3.8010000  43.3700000 -49.1780000   2.5450000
  42.8350000 -48.8180000   1.6660000  44.3940000 -49.4430000   2.2850000
  43.3230000 -48.1340000   3.6680000  44.1940000 -48.2740000   4.3080000
  43.3490000 -46.7030000   3.1080000  44.3840000 -46.0380000   3.1530000
  42.2090000 -46.2020000   2.6100000  41.3850000 -46.7860000   2.6210000
  42.0900000 -44.8260000   2.0840000  42.8960000 -44.6630000   1.3670000
  40.7550000 -44.6020000   1.3460000  39.9260000 -44.7410000   2.0410000
  40.6640000 -43.1900000   0.7550000  41.5110000 -43.0030000   0.0940000
  39.7390000 -43.0830000   0.1880000  40.6580000 -42.4440000   1.5490000
  40.5940000 -45.5950000   0.1920000  40.5340000 -46.6150000   0.5730000
  39.6720000 -45.3810000  -0.3490000  41.4410000 -45.5190000  -0.4890000
  42.2710000 -43.7980000   3.2020000  43.0600000 -42.8640000   3.0580000
  41.5780000 -43.9940000   4.3280000  40.9440000 -44.7800000   4.3600000
  41.7010000 -43.1790000   5.5370000  41.3900000 -42.1620000   5.2970000
  40.7150000 -43.7440000   6.5800000  39.7250000 -43.7040000   6.1270000
  40.9390000 -44.7940000   6.7670000  40.6660000 -42.9910000   7.9230000
  40.8830000 -41.9360000   7.7590000  39.2690000 -43.1060000   8.5350000
  39.0260000 -44.1530000   8.7200000  39.2280000 -42.5540000   9.4740000
  38.5300000 -42.6830000   7.8550000  41.6530000 -43.5590000   8.9460000
  42.6790000 -43.4090000   8.6120000  41.5250000 -43.0520000   9.9030000
  41.4750000 -44.6250000   9.0880000  43.1580000 -43.0990000   6.0280000
  43.6610000 -42.0050000   6.2820000  43.8580000 -44.2350000   6.1130000
  43.3800000 -45.1040000   5.9230000  45.2880000 -44.2960000   6.4430000
  45.4210000 -43.8550000   7.4310000  45.7420000 -45.7630000   6.5330000
  45.1280000 -46.2620000   7.2830000  45.5860000 -46.2540000   5.5730000
  47.2220000 -45.8940000   6.9220000  47.8360000 -45.4320000   6.1490000
  47.3900000 -45.3510000   7.8520000  47.6570000 -47.3620000   7.1130000
  48.7510000 -47.7370000   6.6210000  46.9390000 -48.1490000   7.7780000
  46.1580000 -43.4710000   5.4760000  46.9200000 -42.6080000   5.9190000
  46.0310000 -43.6790000   4.1600000  45.4250000 -44.4180000   3.8350000
  46.7720000 -42.8940000   3.1580000  47.8380000 -43.0100000   3.3560000
  46.5110000 -43.4030000   1.7380000  45.4460000 -43.3370000   1.5140000
  47.0620000 -42.7750000   1.0380000  46.9530000 -44.7370000   1.5820000
  46.7220000 -45.0150000   0.6920000  46.4660000 -41.3910000   3.2230000
  47.3720000 -40.5730000   3.0450000  45.2240000 -40.9940000   3.5180000
  44.4920000 -41.6850000   3.6090000  44.8950000 -39.5820000   3.7220000
  45.3480000 -39.0320000   2.8970000  43.3840000 -39.3360000   3.6310000
  42.9380000 -40.0810000   2.9730000  42.9290000 -39.4540000   4.6150000
  43.0670000 -37.9570000   3.0720000  42.6140000 -37.8290000   1.7440000
  42.4290000 -38.7090000   1.1480000  42.4050000 -36.5560000   1.1850000
  42.0630000 -36.4640000   0.1650000  42.6290000 -35.4030000   1.9570000
  42.4600000 -34.4250000   1.5300000  43.0590000 -35.5250000   3.2900000
  43.2250000 -34.6400000   3.8860000  43.2790000 -36.7990000   3.8460000
  43.6140000 -36.8800000   4.8690000  45.5140000 -39.0150000   5.0100000
  46.0380000 -37.9030000   4.9860000  45.5620000 -39.7790000   6.1110000
  45.0880000 -40.6710000   6.0960000  46.3000000 -39.3900000   7.3300000
  45.9480000 -38.4070000   7.6430000  46.0200000 -40.3720000   8.4810000
  46.0810000 -41.4000000   8.1240000  46.7750000 -40.2320000   9.2540000
  44.6400000 -40.1140000   9.1070000  44.6070000 -39.0830000   9.4620000
  43.8620000 -40.2500000   8.3560000  44.3850000 -41.0680000  10.2830000
  44.3610000 -42.0880000   9.9000000  45.2010000 -40.9990000  11.0020000
  43.0520000 -40.7800000  10.9910000  42.2600000 -40.7190000  10.2450000
  42.8270000 -41.6250000  11.6420000  43.0960000 -39.5330000  11.8070000
  43.2620000 -38.7150000  11.2380000  42.2230000 -39.3900000  12.2930000
  43.8220000 -39.5790000  12.5080000  47.8040000 -39.2220000   7.0780000
  48.3860000 -38.2480000   7.5500000  48.4220000 -40.0980000   6.2800000
  47.8970000 -40.9110000   5.9910000  49.7890000 -39.9020000   5.7460000
  50.4670000 -39.8210000   6.5950000  50.2570000 -41.1150000   4.9130000
  49.5060000 -41.3480000   4.1580000  51.5890000 -40.8660000   4.1950000
  52.3540000 -40.5730000   4.9140000  51.9090000 -41.7760000   3.6870000
  51.4780000 -40.0850000   3.4440000  50.4380000 -42.3450000   5.8100000
  49.5070000 -42.5830000   6.3250000  50.7220000 -43.2050000   5.2040000
  51.2150000 -42.1580000   6.5510000  49.9160000 -38.5760000   4.9790000
  50.8290000 -37.7960000   5.2500000  48.9980000 -38.2830000   4.0500000
  48.2970000 -38.9800000   3.8390000  48.9480000 -36.9950000   3.3330000
  49.8850000 -36.8770000   2.7880000  47.8210000 -36.9970000   2.2940000
  47.9180000 -37.8770000   1.6580000  46.8540000 -37.0260000   2.7970000
  47.9020000 -35.8340000   1.4950000  47.0410000 -35.6630000   1.1050000
  48.8510000 -35.7800000   4.2720000  49.6590000 -34.8560000   4.1680000
  47.9300000 -35.8060000   5.2410000  47.2840000 -36.5820000   5.2610000
  47.8240000 -34.8060000   6.3090000  47.5940000 -33.8410000   5.8570000
  46.6620000 -35.1710000   7.2470000  45.7230000 -34.8810000   6.7750000
  46.6370000 -36.2530000   7.3760000  46.7460000 -34.5330000   8.6220000
  46.5680000 -33.1460000   8.7710000  46.3430000 -32.5350000   7.9090000
  46.6980000 -32.5470000  10.0370000  46.5620000 -31.4810000  10.1470000
  47.0110000 -33.3350000  11.1590000  47.1130000 -32.8760000  12.1310000
  47.1980000 -34.7210000  11.0130000  47.4470000 -35.3250000  11.8730000
  47.0670000 -35.3200000   9.7470000  47.2250000 -36.3830000   9.6400000
  49.1410000 -34.6250000   7.0840000  49.6110000 -33.4970000   7.2240000
  49.7670000 -35.7110000   7.5510000  49.3190000 -36.6090000   7.4360000
  51.0480000 -35.6640000   8.2630000  50.9160000 -35.0210000   9.1340000
  51.3900000 -37.0820000   8.7570000  50.5890000 -37.4250000   9.4110000
  51.4270000 -37.7500000   7.8970000  52.7290000 -37.1970000   9.5100000
  53.5430000 -36.8840000   8.8560000  52.7600000 -36.3460000  10.7810000
  51.9230000 -36.6080000  11.4280000  53.6950000 -36.5180000  11.3140000
  52.7050000 -35.2880000  10.5260000  52.9700000 -38.6540000   9.9020000
  52.9830000 -39.2770000   9.0080000  53.9320000 -38.7460000  10.4050000
  52.1800000 -38.9990000  10.5700000  52.1700000 -35.0460000   7.4050000
  52.9350000 -34.2100000   7.8870000  52.2430000 -35.4200000   6.1260000
  51.5990000 -36.1320000   5.8120000  53.1650000 -34.8450000   5.1380000
  54.1840000 -34.9990000   5.4910000  53.0100000 -35.6080000   3.8170000
  53.1350000 -36.6730000   4.0150000  52.0090000 -35.4480000   3.4160000
  53.9600000 -35.2140000   2.8530000  53.9300000 -35.8680000   2.1500000
  52.9610000 -33.3290000   4.9630000  53.9160000 -32.5530000   5.0640000
  51.7120000 -32.8840000   4.7770000  50.9660000 -33.5600000   4.7010000
  51.3470000 -31.4660000   4.7580000  51.9050000 -30.9810000   3.9560000
  49.8560000 -31.3330000   4.4300000  49.2520000 -31.7930000   5.2120000
  49.5950000 -30.2770000   4.3580000  49.6400000 -31.8160000   3.4770000
  51.7150000 -30.7330000   6.0660000  52.3040000 -29.6560000   6.0180000
  51.4110000 -31.3160000   7.2300000  50.8960000 -32.1840000   7.2030000
  51.7400000 -30.7640000   8.5470000  51.2970000 -29.7700000   8.6070000
  51.0830000 -31.6510000   9.6220000  50.0050000 -31.6560000   9.4610000
  51.4430000 -32.6710000   9.4940000  51.3660000 -31.2240000  11.0730000
  52.4420000 -31.2140000  11.2490000  50.7970000 -29.8410000  11.3910000
  49.7250000 -29.8240000  11.1920000  50.9720000 -29.6060000  12.4410000
  51.2910000 -29.0820000  10.7850000  50.7400000 -32.2300000  12.0370000
  51.1530000 -33.2220000  11.8550000  50.9630000 -31.9420000  13.0650000
  49.6590000 -32.2590000  11.8970000  53.2560000 -30.5970000   8.7640000
  53.6960000 -29.5780000   9.3040000  54.0670000 -31.5660000   8.3290000
  53.6500000 -32.4040000   7.9500000  55.5260000 -31.4270000   8.2700000
  55.8850000 -31.2130000   9.2770000  56.1940000 -32.7390000   7.8160000
  55.8980000 -33.5350000   8.4980000  55.8540000 -32.9930000   6.8120000
  57.7300000 -32.6200000   7.8090000  58.0170000 -31.7840000   7.1700000
  58.0670000 -32.3940000   8.8210000  58.4600000 -33.8810000   7.3050000
  59.5500000 -33.7260000   6.6950000  57.9850000 -35.0210000   7.5300000
  55.9420000 -30.2350000   7.3940000  56.7110000 -29.3910000   7.8480000
  55.4300000 -30.1300000   6.1640000  54.7970000 -30.8490000   5.8450000
  55.6990000 -28.9970000   5.2660000  56.7740000 -28.9740000   5.0860000
  55.0170000 -29.2260000   3.9110000  55.3110000 -30.2210000   3.5770000
  53.9320000 -29.2210000   4.0190000  55.4500000 -28.2380000   2.8160000
  56.5280000 -28.0990000   2.8890000  55.2390000 -28.7030000   1.8520000
  54.7490000 -26.8660000   2.8110000  55.3350000 -25.9040000   2.2590000
  53.5960000 -26.7270000   3.2770000  55.3350000 -27.6400000   5.8880000
  56.1740000 -26.7350000   5.8950000  54.1370000 -27.5140000   6.4700000
  53.4860000 -28.2810000   6.3820000  53.7100000 -26.3410000   7.2370000
  53.6330000 -25.4830000   6.5700000  52.3380000 -26.5950000   7.8920000
  52.4300000 -27.4580000   8.5510000  52.1250000 -25.7400000   8.5330000
  51.1140000 -26.8230000   7.0140000  49.9780000 -27.4170000   7.6010000
  49.9970000 -27.6990000   8.6430000  48.8160000 -27.6460000   6.8410000
  47.9530000 -28.1080000   7.2980000  48.7770000 -27.2610000   5.4840000
  47.6500000 -27.4720000   4.7520000  46.9450000 -27.8340000   5.2930000
  49.9080000 -26.6590000   4.8930000  49.8760000 -26.3750000   3.8520000
  51.0720000 -26.4400000   5.6560000  51.9330000 -25.9880000   5.1860000
  54.7270000 -25.9880000   8.3330000  55.2010000 -24.8540000   8.4010000
  55.0880000 -26.9680000   9.1690000  54.6680000 -27.8750000   9.0240000
  56.0550000 -26.8240000  10.2710000  55.6830000 -26.0650000  10.9600000
  56.1900000 -28.1470000  11.0500000  56.5730000 -28.9220000  10.3860000
  57.1280000 -28.0350000  12.2530000  56.8150000 -27.2140000  12.8970000
  57.1080000 -28.9650000  12.8200000  58.1510000 -27.8640000  11.9170000
  54.9320000 -28.5650000  11.5400000  54.4340000 -28.8980000  10.7900000
  57.4240000 -26.3520000   9.7690000  57.9730000 -25.3660000  10.2590000
  57.9700000 -27.0420000   8.7620000  57.4450000 -27.8270000   8.4040000
  59.2840000 -26.7820000   8.1580000  60.0400000 -26.8380000   8.9420000
  59.5520000 -27.9080000   7.1420000  59.2700000 -28.8450000   7.6220000
  58.9240000 -27.7730000   6.2620000  61.0260000 -28.0180000   6.7170000
  61.3160000 -27.1030000   6.1990000  61.6440000 -28.1170000   7.6090000
  61.2960000 -29.2230000   5.7930000  60.7390000 -29.0930000   4.8650000
  62.3600000 -29.2380000   5.5550000  60.9030000 -30.5600000   6.4510000
  61.4130000 -30.6420000   7.4110000  59.8310000 -30.5470000   6.6450000
  61.2250000 -31.7420000   5.6080000  62.2210000 -31.8990000   5.5490000
  60.8040000 -32.5710000   6.0020000  60.8610000 -31.6480000   4.6700000
  59.3680000 -25.3750000   7.5530000  60.2720000 -24.6160000   7.8970000
  58.3730000 -24.9870000   6.7470000  57.6620000 -25.6700000   6.5280000
  58.2310000 -23.6350000   6.1770000  59.1190000 -23.4050000   5.5880000
  57.0190000 -23.6460000   5.2330000  57.1840000 -24.4260000   4.4900000
  56.1290000 -23.9040000   5.8070000  56.7770000 -22.3150000   4.4980000
  56.3590000 -21.5830000   5.1900000  57.7280000 -21.9350000   4.1240000
  55.8290000 -22.5040000   3.3020000  55.7330000 -21.5570000   2.7710000
  56.2830000 -23.2250000   2.6230000  54.4290000 -22.9920000   3.7200000
  54.5300000 -23.6990000   4.5440000  53.8470000 -22.1430000   4.0780000
  53.7370000 -23.6750000   2.5990000  54.2650000 -24.4950000   2.3380000
  52.8230000 -24.0050000   2.8750000  53.6340000 -23.0800000   1.7900000
  58.1290000 -22.5560000   7.2610000  58.8810000 -21.5830000   7.2270000
  57.2650000 -22.7550000   8.2620000  56.6750000 -23.5740000   8.2280000
  57.1110000 -21.8480000   9.4060000  56.8010000 -20.8760000   9.0230000
  55.9930000 -22.3950000  10.3130000  55.0790000 -22.4850000   9.7240000
  56.2790000 -23.3940000  10.6400000  55.6840000 -21.5560000  11.5650000
  56.5910000 -21.4130000  12.1530000  55.0940000 -20.1920000  11.2080000
  54.2010000 -20.3170000  10.5950000  54.8300000 -19.6530000  12.1180000
  55.8280000 -19.6010000  10.6610000  54.6710000 -22.3100000  12.4250000
  55.0940000 -23.2660000  12.7360000  54.4300000 -21.7310000  13.3160000
  53.7610000 -22.4910000  11.8540000  58.4330000 -21.6400000  10.1710000
  58.7450000 -20.5160000  10.5660000  59.2270000 -22.7030000  10.3490000
  58.8800000 -23.6100000  10.0720000  60.5700000 -22.6200000  10.9300000
  60.5020000 -22.0550000  11.8600000  61.0820000 -24.0320000  11.2790000
  61.0710000 -24.6560000  10.3850000  62.1160000 -23.9580000  11.6160000
  60.2970000 -24.7340000  12.3810000  59.5270000 -24.1480000  13.1310000
  60.5000000 -26.0240000  12.5400000  60.0090000 -26.4970000  13.2850000
  61.1550000 -26.5140000  11.9490000  61.5710000 -21.8550000  10.0360000
  62.3380000 -21.0360000  10.5500000  61.5720000 -22.0860000   8.7150000
  60.9690000 -22.8090000   8.3490000  62.4690000 -21.3950000   7.7680000
  63.4960000 -21.5940000   8.0720000  62.3100000 -21.8990000   6.3180000
  61.2900000 -21.7080000   5.9860000  63.2910000 -21.1920000   5.3760000
  64.2840000 -21.1570000   5.8240000  63.3640000 -21.7200000   4.4250000
  62.9450000 -20.1780000   5.1770000  62.5630000 -23.2780000   6.1850000
  62.2270000 -23.5080000   5.3160000  62.2870000 -19.8740000   7.7820000
  63.2730000 -19.1480000   7.9310000  61.0490000 -19.3940000   7.6000000
  60.2950000 -20.0650000   7.5460000  60.7170000 -17.9900000   7.3000000
  61.3630000 -17.6640000   6.4850000  59.2680000 -17.9130000   6.7810000
  58.5990000 -18.3040000   7.5470000  59.0110000 -16.8670000   6.6120000
  59.0260000 -18.6990000   5.4720000  59.2490000 -19.7550000   5.6280000
  57.9710000 -18.6270000   5.2080000  59.8480000 -18.2050000   4.2780000
  59.9740000 -17.0180000   4.0140000  60.4240000 -19.0790000   3.4810000
  60.9670000 -18.7110000   2.7130000  60.3490000 -20.0740000   3.6390000
  61.0070000 -17.0110000   8.4580000  62.0640000 -16.3430000   8.4220000
  60.2110000 -16.9140000   9.4180000  28.5060000 -60.2490000  -8.9970000
  29.0220000 -60.5130000  -8.1700000  28.0590000 -59.3590000  -8.8270000
  29.1690000 -60.1220000  -9.7480000  27.5150000 -61.2990000  -9.3570000
  27.0700000 -61.0280000 -10.3140000  28.2060000 -62.6590000  -9.5460000
  27.4600000 -63.4270000  -9.7520000  28.8900000 -62.6050000 -10.3930000
  28.9360000 -62.9990000  -8.3770000  29.3870000 -63.8310000  -8.5400000
  26.3510000 -61.3950000  -8.3590000  25.2150000 -61.1050000  -8.7300000
  26.5940000 -61.8040000  -7.1050000  27.5440000 -62.0560000  -6.8730000
  25.5730000 -62.1190000  -6.0740000  25.0630000 -63.0320000  -6.3790000
  26.2290000 -62.4030000  -4.7100000  25.4470000 -62.5380000  -3.9630000
  27.0950000 -63.6620000  -4.7330000  27.9390000 -63.5400000  -5.4120000
  27.4710000 -63.8640000  -3.7300000  26.4950000 -64.5130000  -5.0560000
  27.0520000 -61.3220000  -4.3300000  27.4000000 -61.5150000  -3.4560000
  24.4820000 -61.0550000  -5.9070000  23.3000000 -61.3910000  -5.9590000
  24.8480000 -59.7790000  -5.7560000  25.8340000 -59.5880000  -5.6460000
  23.9050000 -58.6570000  -5.6260000  23.3370000 -58.7900000  -4.7040000
  24.6860000 -57.3370000  -5.5190000  25.2120000 -57.1570000  -6.4560000
  23.9740000 -56.5220000  -5.3880000  25.6910000 -57.2840000  -4.3830000
  25.2730000 -56.9420000  -3.0840000  24.2330000 -56.7330000  -2.8840000
  26.2090000 -56.8710000  -2.0380000  25.8790000 -56.6110000  -1.0430000
  27.5650000 -57.1480000  -2.2830000  28.2860000 -57.0880000  -1.4820000
  27.9800000 -57.5160000  -3.5740000  29.0160000 -57.7550000  -3.7630000
  27.0470000 -57.5770000  -4.6220000  27.3770000 -57.8520000  -5.6130000
  22.8920000 -58.6020000  -6.7840000  21.6810000 -58.5790000  -6.5550000
  23.3800000 -58.6510000  -8.0290000  24.3830000 -58.6470000  -8.1500000
  22.5500000 -58.7070000  -9.2430000  21.8830000 -57.8460000  -9.2450000
  23.4220000 -58.6230000 -10.5030000  24.0710000 -59.4970000 -10.5600000
  22.7770000 -58.6100000 -11.3820000  24.2140000 -57.4470000 -10.4820000
  24.7010000 -57.3970000 -11.3080000  21.6810000 -59.9670000  -9.3010000
  20.5000000 -59.8820000  -9.6300000  22.2320000 -61.1330000  -8.9330000
  23.2120000 -61.1280000  -8.6900000  21.5150000 -62.4230000  -8.9120000
  21.0910000 -62.5870000  -9.9030000  22.5330000 -63.5460000  -8.6350000
  23.3980000 -63.3990000  -9.2820000  22.8670000 -63.4920000  -7.5990000
  21.9630000 -64.9450000  -8.9130000  21.1260000 -65.1350000  -8.2420000
  21.6110000 -64.9860000  -9.9440000  23.0350000 -66.0230000  -8.6890000
  23.8890000 -65.8390000  -9.3410000  23.3800000 -65.9590000  -7.6560000
  22.5050000 -67.4450000  -8.9270000  23.2390000 -68.1500000  -8.5370000
  21.5870000 -67.5810000  -8.3550000  22.2650000 -67.7340000 -10.3680000
  23.1110000 -67.6270000 -10.9090000  21.9480000 -68.6840000 -10.4950000
  21.5610000 -67.1260000 -10.7620000  20.3350000 -62.4310000  -7.9290000
  19.2620000 -62.9360000  -8.2580000  20.5080000 -61.8500000  -6.7390000
  21.4350000 -61.5140000  -6.5180000  19.4270000 -61.6230000  -5.7660000
  18.9060000 -62.5650000  -5.5970000  20.0270000 -61.1470000  -4.4250000
  20.6450000 -60.2700000  -4.6170000  19.2160000 -60.8370000  -3.7660000
  20.8760000 -62.2030000  -3.6890000  21.6100000 -62.6340000  -4.3710000
  21.6250000 -61.5520000  -2.5260000  20.9150000 -61.1540000  -1.8020000
  22.2570000 -62.2930000  -2.0360000  22.2580000 -60.7470000  -2.8990000
  20.0180000 -63.3330000  -3.1190000  19.5330000 -63.8820000  -3.9260000
  20.6480000 -64.0270000  -2.5640000  19.2580000 -62.9270000  -2.4500000
  18.3690000 -60.6330000  -6.2900000  17.1720000 -60.9270000  -6.2490000
  18.8060000 -59.4840000  -6.8290000  19.8010000 -59.3080000  -6.8020000
  17.9350000 -58.4220000  -7.3740000  17.2540000 -58.1080000  -6.5830000
  18.8250000 -57.2230000  -7.7660000  19.3990000 -56.9190000  -6.8910000
  19.5380000 -57.5520000  -8.5220000  18.1070000 -55.9770000  -8.3170000
  18.8780000 -55.2540000  -8.5860000  17.5630000 -56.2230000  -9.2290000
  17.1650000 -55.2940000  -7.3160000  17.6420000 -55.2840000  -6.3360000
  17.0180000 -54.2630000  -7.6390000  15.8450000 -55.9540000  -7.2470000
  15.6450000 -56.6500000  -7.9520000  14.8810000 -55.7050000  -6.3810000
  13.7400000 -56.3250000  -6.4780000  13.5750000 -56.9530000  -7.2510000
  12.9960000 -56.1260000  -5.8240000  15.0310000 -54.8520000  -5.4090000
  15.9110000 -54.3660000  -5.3150000  14.2890000 -54.6750000  -4.7460000
  17.0670000 -58.9020000  -8.5440000  15.8840000 -58.5680000  -8.6010000
  17.6490000 -59.6800000  -9.4530000  18.6420000 -59.8380000  -9.3510000
  16.9960000 -60.2400000 -10.6440000  16.5980000 -59.4170000 -11.2370000
  18.0520000 -60.9620000 -11.5020000  18.8070000 -60.2310000 -11.7920000
  18.5340000 -61.7370000 -10.9060000  17.4720000 -61.6080000 -12.7680000
  16.7610000 -62.3830000 -12.4800000  16.9310000 -60.8490000 -13.3340000
  18.5630000 -62.2230000 -13.6680000  18.4150000 -63.4000000 -14.0810000
  19.5620000 -61.5380000 -13.9970000  15.8110000 -61.1590000 -10.3040000
  14.7280000 -60.9940000 -10.8620000  16.0040000 -62.1220000  -9.3940000
  16.9180000 -62.2000000  -8.9710000  14.9890000 -63.1340000  -9.0540000
  14.5900000 -63.5510000  -9.9790000  15.6500000 -64.2770000  -8.2680000
  16.1810000 -63.8570000  -7.4140000  14.8770000 -64.9470000  -7.8920000
  16.6230000 -65.1020000  -9.1260000  16.0630000 -65.6480000  -9.8850000
  17.3310000 -64.4450000  -9.6300000  17.4060000 -66.0900000  -8.2670000
  17.0890000 -67.2690000  -8.1670000  18.4440000 -65.6400000  -7.5940000
  18.9490000 -66.2800000  -6.9970000  18.7170000 -64.6740000  -7.7010000
  13.7910000 -62.5710000  -8.2670000  12.6580000 -63.0170000  -8.4570000
  14.0280000 -61.5920000  -7.3850000  14.9850000 -61.2940000  -7.2640000
  13.0140000 -61.0340000  -6.4790000  12.5560000 -61.8650000  -5.9420000
  13.7520000 -60.1460000  -5.4540000  14.4870000 -60.7610000  -4.9340000
  14.2970000 -59.3760000  -5.9990000  12.8670000 -59.4530000  -4.4000000
  12.1440000 -58.8070000  -4.8970000  12.1210000 -60.4540000  -3.5150000
  12.8290000 -61.1280000  -3.0330000  11.5540000 -59.9210000  -2.7510000
  11.4240000 -61.0380000  -4.1160000  13.7410000 -58.5830000  -3.4960000
  14.3260000 -57.8890000  -4.0990000  13.1140000 -58.0050000  -2.8170000
  14.4240000 -59.2050000  -2.9180000  11.8730000 -60.2940000  -7.2040000
  10.7220000 -60.3460000  -6.7630000  12.1770000 -59.6010000  -8.3060000
  13.1340000 -59.6280000  -8.6290000  11.2010000 -58.8270000  -9.0890000
  10.7490000 -58.0810000  -8.4350000  11.7100000 -58.3010000  -9.8960000
  10.0660000 -59.6690000  -9.6870000   8.9110000 -59.4590000  -9.3160000
  10.3580000 -60.6660000 -10.5450000  11.6480000 -60.8960000 -11.1770000
  12.2500000 -61.5390000 -10.5360000  12.1740000 -59.9650000 -11.3870000
  11.3410000 -61.6220000 -12.4820000  12.1790000 -62.2400000 -12.8070000
  11.0690000 -60.9000000 -13.2510000  10.1250000 -62.4620000 -12.1040000
  10.4550000 -63.3570000 -11.5760000   9.5330000 -62.7300000 -12.9790000
   9.3510000 -61.5370000 -11.1580000   8.6800000 -60.9170000 -11.7530000
   8.5180000 -62.3260000 -10.1420000   7.3070000 -62.4540000 -10.3110000
   9.1330000 -62.7990000  -9.0500000  10.1350000 -62.6950000  -8.9860000
   8.4170000 -63.4480000  -7.9320000   7.8180000 -64.2660000  -8.3330000
   9.4180000 -64.0540000  -6.9230000  10.1330000 -63.2860000  -6.6280000
   8.7420000 -64.5910000  -5.6550000   7.9730000 -65.3170000  -5.9180000
   9.4840000 -65.0720000  -5.0180000   8.2920000 -63.7770000  -5.0880000
  10.1810000 -65.2190000  -7.5660000  10.7070000 -64.8830000  -8.4600000
  10.9180000 -65.6100000  -6.8650000   9.4900000 -66.0150000  -7.8410000
   7.4390000 -62.4790000  -7.2560000   6.3050000 -62.8450000  -6.9550000
   7.8400000 -61.2180000  -7.0640000   8.7800000 -60.9690000  -7.3390000
   6.9610000 -60.1640000  -6.5200000   6.4930000 -60.5520000  -5.6160000
   7.7770000 -58.9260000  -6.1090000   8.2920000 -58.5080000  -6.9740000
   6.9330000 -57.8350000  -5.4580000   6.3330000 -58.2510000  -4.6480000
   7.5880000 -57.0610000  -5.0580000   6.2740000 -57.3790000  -6.1970000
   8.7290000 -59.3260000  -5.1450000   9.4860000 -59.6660000  -5.6290000
   5.8130000 -59.8110000  -7.4770000   4.6710000 -59.6780000  -7.0410000
   6.0830000 -59.7300000  -8.7830000   7.0450000 -59.8330000  -9.0730000
   5.0670000 -59.5250000  -9.8280000   4.5070000 -58.6200000  -9.5920000
   5.7520000 -59.3130000 -11.1900000   6.4080000 -60.1620000 -11.3830000
   4.9980000 -59.2780000 -11.9760000   6.5700000 -58.0080000 -11.2300000
   5.8960000 -57.1670000 -11.3910000   7.0590000 -57.8590000 -10.2670000
   7.6610000 -57.9760000 -12.3000000   7.6710000 -58.7240000 -13.2690000
   8.6270000 -57.0890000 -12.1690000   9.3460000 -57.0540000 -12.8780000
   8.6380000 -56.4610000 -11.3780000   4.0460000 -60.6780000  -9.8820000
   2.8410000 -60.4340000  -9.9130000   4.5060000 -61.9320000  -9.8390000
   5.5050000 -62.0730000  -9.8700000   3.6570000 -63.1270000  -9.7170000
   2.9930000 -63.1670000 -10.5800000   4.5490000 -64.3820000  -9.7360000
   5.1000000 -64.4100000 -10.6760000   5.2790000 -64.3040000  -8.9310000
   3.8010000 -65.7120000  -9.5560000   4.5360000 -66.5170000  -9.5790000
   3.3430000 -65.7250000  -8.5670000   2.7290000 -65.9910000 -10.6310000
   2.8680000 -65.5310000 -11.7910000   1.7510000 -66.7180000 -10.3290000
   2.7640000 -63.0860000  -8.4630000   1.5570000 -63.3220000  -8.5450000
   3.3440000 -62.7650000  -7.2990000   4.3450000 -62.6360000  -7.2780000
   2.5960000 -62.6020000  -6.0500000   2.0830000 -63.5410000  -5.8410000
   3.5760000 -62.3400000  -4.8980000   4.3460000 -63.1120000  -4.9060000
   4.0700000 -61.3800000  -5.0480000   2.9070000 -62.3440000  -3.5390000
   2.8150000 -63.5420000  -2.8070000   3.2490000 -64.4520000  -3.1970000
   2.1430000 -63.5650000  -1.5730000   2.0730000 -64.4870000  -1.0140000
   1.5550000 -62.3920000  -1.0710000   1.0200000 -62.4150000  -0.1330000
   1.6560000 -61.1920000  -1.7950000   1.2020000 -60.2900000  -1.4120000
   2.3350000 -61.1640000  -3.0250000   2.3980000 -60.2400000  -3.5800000
   1.5160000 -61.5070000  -6.1500000   0.3660000 -61.7290000  -5.7670000
   1.8580000 -60.3400000  -6.7090000   2.8190000 -60.2070000  -6.9880000
   0.9070000 -59.2590000  -6.9830000   0.4230000 -58.9770000  -6.0480000
   1.6640000 -58.0280000  -7.4940000   2.2650000 -57.6190000  -6.6810000
   2.3470000 -58.3380000  -8.2850000   0.7900000 -56.9490000  -8.0510000
   0.2540000 -55.9210000  -7.3550000   0.4200000 -55.7310000  -6.3050000
  -0.5590000 -55.1730000  -8.1870000  -1.0730000 -54.3610000  -7.8750000
  -0.5980000 -55.6950000  -9.4630000  -1.2730000 -55.3230000 -10.6350000
  -1.9200000 -54.4580000 -10.6390000  -1.0960000 -56.0920000 -11.7980000
  -1.6120000 -55.8270000 -12.7090000  -0.2440000 -57.2090000 -11.7820000
  -0.1070000 -57.7910000 -12.6820000   0.4330000 -57.5700000 -10.6030000
   1.0900000 -58.4280000 -10.6050000   0.2680000 -56.8290000  -9.4110000
  -0.2170000 -59.6780000  -7.9510000  -1.3810000 -59.3370000  -7.7280000
   0.0940000 -60.4520000  -8.9950000   1.0640000 -60.6790000  -9.1610000
  -0.9210000 -60.9940000  -9.9020000  -1.4930000 -60.1540000 -10.2950000
  -0.2570000 -61.7050000 -11.0920000   0.4700000 -61.0300000 -11.5440000
   0.2760000 -62.5860000 -10.7350000  -1.2650000 -62.1220000 -12.1780000
  -1.0340000 -63.1540000 -12.8540000  -2.2970000 -61.4420000 -12.3800000
  -1.9110000 -61.9100000  -9.1550000  -3.1260000 -61.7510000  -9.2770000
  -1.4120000 -62.8260000  -8.3150000  -0.4090000 -62.9230000  -8.2500000
  -2.2570000 -63.6380000  -7.4350000  -2.9460000 -64.2100000  -8.0560000
  -1.3870000 -64.6400000  -6.6610000  -0.9070000 -65.3280000  -7.3580000
  -0.6060000 -64.1140000  -6.1120000  -2.2410000 -65.4500000  -5.6970000
  -2.9810000 -66.3410000  -6.0900000  -2.2040000 -65.1400000  -4.4220000
  -2.9160000 -65.5380000  -3.8260000  -1.6020000 -64.4020000  -4.0840000
  -3.1220000 -62.7830000  -6.4810000  -4.3110000 -63.0600000  -6.3200000
  -2.5570000 -61.7340000  -5.8750000  -1.5720000 -61.5710000  -6.0280000
  -3.2910000 -60.7840000  -5.0330000  -3.7370000 -61.3380000  -4.2070000
  -2.2830000 -59.7780000  -4.4470000  -1.6130000 -60.3140000  -3.7730000
  -1.6780000 -59.3770000  -5.2590000  -2.8910000 -58.5810000  -3.6980000
  -3.5630000 -58.0310000  -4.3570000  -3.6580000 -59.0160000  -2.4530000
  -3.0040000 -59.5820000  -1.7890000  -4.0210000 -58.1280000  -1.9360000
  -4.5130000 -59.6320000  -2.7320000  -1.7710000 -57.6360000  -3.2640000
  -1.2340000 -57.2760000  -4.1410000  -2.1910000 -56.7800000  -2.7360000
  -1.0760000 -58.1590000  -2.6060000  -4.4480000 -60.1080000  -5.7970000
  -5.5550000 -59.9940000  -5.2690000  -4.2340000 -59.7020000  -7.0490000
  -3.3030000 -59.7910000  -7.4320000  -5.3020000 -59.2110000  -7.9250000
  -5.8220000 -58.4160000  -7.3920000  -4.6990000 -58.5740000  -9.1890000
  -4.2340000 -57.6300000  -8.9040000  -3.9100000 -59.2200000  -9.5730000
  -5.6730000 -58.3070000 -10.3480000  -5.1380000 -57.7390000 -11.1080000
  -5.9300000 -59.2710000 -10.7870000  -6.9820000 -57.5610000 -10.0010000
  -7.1250000 -56.9330000  -8.9260000  -7.9070000 -57.5820000 -10.8460000
  -6.3670000 -60.2860000  -8.2230000  -7.5550000 -59.9890000  -8.1180000
  -5.9930000 -61.5410000  -8.5210000  -5.0050000 -61.7300000  -8.6150000
  -6.9620000 -62.6480000  -8.7040000  -7.6550000 -62.3720000  -9.4990000
  -6.2570000 -63.9530000  -9.1150000  -5.5280000 -64.2180000  -8.3490000
  -6.9980000 -64.7510000  -9.1620000  -5.5550000 -63.8730000 -10.4790000
  -6.2910000 -63.6740000 -11.2580000  -4.8480000 -63.0430000 -10.4670000
  -4.8100000 -65.1800000 -10.8070000  -4.5920000 -65.7180000  -9.8840000
  -5.4440000 -65.8190000 -11.4210000  -3.4700000 -64.9270000 -11.5130000
  -2.8560000 -64.3040000 -10.8630000  -2.9520000 -65.8790000 -11.6340000
  -3.6220000 -64.2680000 -12.8370000  -4.1570000 -63.4140000 -12.7690000
  -2.7100000 -63.9990000 -13.1780000  -4.0570000 -64.8770000 -13.5150000
  -7.8180000 -62.8970000  -7.4520000  -9.0250000 -63.1130000  -7.5520000
  -7.2170000 -62.8370000  -6.2650000  -6.2130000 -62.7240000  -6.2560000
  -7.9310000 -62.9100000  -4.9780000  -8.5840000 -63.7830000  -4.9850000
  -6.9260000 -63.0890000  -3.8280000  -6.1550000 -62.3230000  -3.9080000
  -7.4510000 -62.9630000  -2.8810000  -6.2790000 -64.4850000  -3.8470000
  -7.0570000 -65.2280000  -3.6730000  -5.8600000 -64.6700000  -4.8360000
  -5.1690000 -64.6820000  -2.7920000  -4.9770000 -63.8210000  -1.8990000
  -4.4840000 -65.7340000  -2.8430000  -8.8430000 -61.6900000  -4.7390000
  -9.9620000 -61.8360000  -4.2430000  -8.4010000 -60.4930000  -5.1380000
  -7.4710000 -60.4440000  -5.5280000  -9.1970000 -59.2510000  -5.0750000
  -9.6010000 -59.1500000  -4.0680000  -8.3180000 -58.0140000  -5.3430000
  -7.9580000 -58.0380000  -6.3710000  -9.0660000 -56.7000000  -5.1070000
  -9.4450000 -56.6630000  -4.0850000  -8.3870000 -55.8620000  -5.2680000
  -9.9040000 -56.6100000  -5.7980000  -7.2080000 -57.9990000  -4.4690000
  -6.6380000 -58.7300000  -4.7190000 -10.3950000 -59.2830000  -6.0350000
 -11.4950000 -58.8790000  -5.6640000 -10.2170000 -59.8260000  -7.2430000
  -9.2760000 -60.0860000  -7.5000000 -11.2680000 -60.0670000  -8.2430000
 -11.6910000 -59.1050000  -8.5320000 -10.6380000 -60.7030000  -9.4990000
  -9.8000000 -60.0930000  -9.8350000 -10.2380000 -61.6770000  -9.2160000
 -11.5800000 -60.9410000 -10.6910000 -11.2010000 -61.7990000 -11.2450000
 -12.5790000 -61.2030000 -10.3440000 -11.6560000 -59.7290000 -11.6370000
 -11.3290000 -59.8740000 -12.8410000 -12.0520000 -58.6280000 -11.1870000
 -12.4210000 -60.9210000  -7.6790000 -13.5860000 -60.6150000  -7.9260000
 -12.1200000 -61.9590000  -6.8860000 -11.1450000 -62.1810000  -6.7430000
 -13.1270000 -62.7600000  -6.1770000 -13.7380000 -63.2900000  -6.9070000
 -12.6240000 -63.5010000  -5.5550000 -14.0540000 -61.9260000  -5.2790000
 -15.2780000 -61.9910000  -5.4150000 -13.4830000 -61.0940000  -4.3960000
 -12.4750000 -61.0840000  -4.3360000 -14.2440000 -60.1560000  -3.5550000
 -14.9580000 -60.7310000  -2.9650000 -13.2730000 -59.4440000  -2.5920000
 -12.7590000 -60.1940000  -1.9920000 -12.5220000 -58.9230000  -3.1860000
 -13.9370000 -58.4180000  -1.6510000 -14.5280000 -57.7080000  -2.2290000
 -14.8370000 -59.0930000  -0.6160000 -14.2820000 -59.8550000  -0.0690000
 -15.2080000 -58.3500000   0.0900000 -15.6900000 -59.5560000  -1.1120000
 -12.8610000 -57.6290000  -0.9090000 -12.2000000 -57.1450000  -1.6280000
 -13.3330000 -56.8540000  -0.3040000 -12.2770000 -58.2850000  -0.2640000
 -15.0510000 -59.1520000  -4.3990000 -16.2370000 -58.9370000  -4.1510000
 -14.4100000 -58.5650000  -5.4170000 -13.4340000 -58.7980000  -5.5320000
 -15.0000000 -57.6080000  -6.3700000 -15.3190000 -56.7190000  -5.8260000
 -13.8830000 -57.2180000  -7.3550000 -12.9950000 -56.9570000  -6.7780000
 -13.6430000 -58.0840000  -7.9710000 -14.1900000 -56.0400000  -8.2880000
 -15.1170000 -56.2350000  -8.8270000 -14.3050000 -55.1260000  -7.7060000
 -13.0520000 -55.8760000  -9.3120000 -12.9690000 -56.8060000  -9.8740000
 -13.3300000 -55.0980000 -10.0230000 -11.7540000 -55.5240000  -8.6810000
 -11.7780000 -54.7920000  -7.9860000 -10.5590000 -56.0250000  -8.9650000
  -9.4780000 -55.5790000  -8.4050000  -9.4920000 -54.7880000  -7.7780000
  -8.6060000 -56.0380000  -8.6280000 -10.3610000 -56.9840000  -9.8040000
 -11.1290000 -57.4230000 -10.2930000  -9.4110000 -57.2280000 -10.0460000
 -16.2420000 -58.1850000  -7.0650000 -17.2890000 -57.5380000  -7.1010000
 -16.1470000 -59.4220000  -7.5590000 -15.2450000 -59.8730000  -7.5080000
 -17.2540000 -60.1820000  -8.1490000 -17.6700000 -59.5930000  -8.9660000
 -16.7080000 -61.4900000  -8.7520000 -15.9460000 -61.2360000  -9.4880000
 -16.2440000 -62.0860000  -7.9660000 -17.7950000 -62.3340000  -9.4420000
 -18.5200000 -62.6760000  -8.7030000 -18.3180000 -61.7110000 -10.1670000
 -17.2450000 -63.5630000 -10.1730000 -16.0790000 -63.9310000 -10.0870000
 -18.0710000 -64.2600000 -10.9270000 -17.7100000 -65.0690000 -11.4120000
 -19.0380000 -63.9840000 -11.0180000 -18.3930000 -60.4340000  -7.1480000
 -19.5490000 -60.1520000  -7.4580000 -18.0890000 -60.9290000  -5.9440000
 -17.1270000 -61.1650000  -5.7490000 -19.0860000 -61.1590000  -4.8840000
 -19.8260000 -61.8670000  -5.2560000 -18.4220000 -61.7870000  -3.6480000
 -17.5260000 -61.2220000  -3.3910000 -19.1180000 -61.7350000  -2.8100000
 -18.0590000 -63.2620000  -3.8850000 -18.9810000 -63.8330000  -3.9840000
 -17.5170000 -63.3520000  -4.8260000 -17.2070000 -63.8690000  -2.7500000
 -16.5010000 -64.8780000  -3.0040000 -17.2550000 -63.3860000  -1.5920000
 -19.8660000 -59.8850000  -4.5070000 -21.0980000 -59.9050000  -4.4660000
 -19.1690000 -58.7640000  -4.2830000 -18.1610000 -58.8160000  -4.3060000
 -19.7980000 -57.4580000  -4.0300000 -20.4580000 -57.5580000  -3.1690000
 -18.7310000 -56.4030000  -3.6930000 -17.9970000 -56.3640000  -4.4980000
 -19.2060000 -55.4250000  -3.6180000 -18.0060000 -56.6940000  -2.3710000
 -17.5680000 -57.6920000  -2.4120000 -17.1920000 -55.9780000  -2.2630000
 -19.0520000 -56.5910000  -0.8920000 -17.8660000 -57.1520000   0.3590000
 -16.9820000 -56.5150000   0.3430000 -18.3230000 -57.1040000   1.3480000
 -17.5780000 -58.1830000   0.1540000 -20.6780000 -56.9940000  -5.2040000
 -21.7980000 -56.5320000  -4.9860000 -20.2110000 -57.1590000  -6.4480000
 -19.2710000 -57.5100000  -6.5590000 -20.9890000 -56.8660000  -7.6640000
 -21.2870000 -55.8180000  -7.6310000 -20.1000000 -57.0510000  -8.9000000
 -19.2270000 -56.4050000  -8.8100000 -19.7650000 -58.0860000  -8.9590000
 -20.8060000 -56.7210000 -10.0820000 -20.2070000 -56.8100000 -10.8260000
 -22.2750000 -57.7060000  -7.7720000 -23.3500000 -57.1710000  -8.0570000
 -22.1970000 -59.0140000  -7.4880000 -21.2840000 -59.3980000  -7.2910000
 -23.3550000 -59.9250000  -7.4560000 -23.8650000 -59.8590000  -8.4170000
 -22.8560000 -61.3700000  -7.2780000 -22.0930000 -61.5710000  -8.0300000
 -22.4050000 -61.4850000  -6.2920000 -23.9860000 -62.3980000  -7.4420000
 -24.7350000 -62.2410000  -6.6660000 -24.4530000 -62.2620000  -8.4180000
 -23.4430000 -63.8320000  -7.3410000 -22.6530000 -63.9570000  -8.0820000
 -23.0100000 -63.9950000  -6.3540000 -24.5200000 -64.8910000  -7.6180000
 -24.9950000 -64.6680000  -8.5740000 -24.0270000 -65.8590000  -7.7160000
 -25.5440000 -64.9680000  -6.5400000 -26.0620000 -64.1050000  -6.4520000
 -26.2120000 -65.7000000  -6.7340000 -25.1220000 -65.1780000  -5.6470000
 -24.3790000 -59.5230000  -6.3870000 -25.5740000 -59.4600000  -6.6730000
 -23.9220000 -59.2190000  -5.1720000 -22.9340000 -59.3300000  -4.9940000
 -24.7790000 -58.7350000  -4.0820000 -25.5680000 -59.4700000  -3.9220000
 -23.9650000 -58.6440000  -2.7890000 -23.4810000 -59.6020000  -2.6000000
 -23.1870000 -57.8880000  -2.9000000 -24.8690000 -58.2990000  -1.5980000
 -24.7340000 -57.1760000  -1.0590000 -25.7020000 -59.1480000  -1.2040000
 -25.4690000 -57.3940000  -4.4070000 -26.6750000 -57.2480000  -4.1980000
 -24.7260000 -56.4320000  -4.9690000 -23.7360000 -56.6020000  -5.0770000
 -25.2620000 -55.1830000  -5.5220000 -25.6970000 -54.5980000  -4.7110000
 -24.0970000 -54.3760000  -6.1350000 -23.4940000 -53.9600000  -5.3270000
 -23.4610000 -55.0650000  -6.6890000 -24.5010000 -53.2480000  -7.1050000
 -25.1600000 -53.6390000  -7.8800000 -25.2160000 -52.1030000  -6.3870000
 -24.5720000 -51.6820000  -5.6150000 -25.4740000 -51.3250000  -7.1060000
 -26.1350000 -52.4660000  -5.9280000 -23.2600000 -52.7120000  -7.8140000
 -22.7400000 -53.5260000  -8.3180000 -23.5540000 -51.9780000  -8.5640000
 -22.5870000 -52.2440000  -7.0950000 -26.3860000 -55.4480000  -6.5410000
 -27.4720000 -54.8850000  -6.4110000 -26.1360000 -56.2910000  -7.5460000
 -25.2150000 -56.7010000  -7.6100000 -27.1230000 -56.6470000  -8.5720000
 -27.4260000 -55.7280000  -9.0730000 -26.4710000 -57.5660000  -9.6190000
 -25.6300000 -57.0410000 -10.0740000 -26.0750000 -58.4490000  -9.1180000
 -27.4190000 -58.0420000 -10.7320000 -26.8450000 -58.6570000 -11.4240000
 -28.1800000 -58.6830000 -10.2870000 -28.1000000 -56.9050000 -11.5260000
 -27.5310000 -55.7920000 -11.6480000 -29.2040000 -57.1370000 -12.0770000
 -28.4000000 -57.2660000  -7.9740000 -29.5060000 -56.8410000  -8.3120000
 -28.2560000 -58.2400000  -7.0690000 -27.3200000 -58.5480000  -6.8510000
 -29.3660000 -58.8550000  -6.3290000 -30.0080000 -59.3620000  -7.0500000
 -28.8100000 -59.9130000  -5.3590000 -28.2890000 -60.6790000  -5.9330000
 -28.0780000 -59.4410000  -4.7040000 -29.8620000 -60.5910000  -4.4660000
 -29.3510000 -61.3210000  -3.8390000 -30.2910000 -59.8410000  -3.8010000
 -30.9910000 -61.3070000  -5.2390000 -32.1060000 -61.4470000  -4.6780000
 -30.7750000 -61.7740000  -6.3840000 -30.2460000 -57.8170000  -5.6050000
 -31.4710000 -57.8330000  -5.7530000 -29.6340000 -56.8970000  -4.8440000
 -28.6290000 -56.9480000  -4.7560000 -30.3350000 -55.7670000  -4.2060000
 -31.1270000 -56.1750000  -3.5780000 -29.3930000 -54.9550000  -3.2920000
 -28.4990000 -54.6750000  -3.8480000 -30.0450000 -53.6750000  -2.7500000
 -30.9820000 -53.9120000  -2.2450000 -29.3730000 -53.1870000  -2.0440000
 -30.2420000 -52.9740000  -3.5610000 -28.9780000 -55.7980000  -2.0800000
 -28.4710000 -56.7070000  -2.4030000 -28.2950000 -55.2310000  -1.4480000
 -29.8600000 -56.0780000  -1.5030000 -31.0290000 -54.8770000  -5.2430000
 -32.2310000 -54.6310000  -5.1340000 -30.2950000 -54.4030000  -6.2600000
 -29.3220000 -54.6690000  -6.3020000 -30.8060000 -53.4760000  -7.2830000
 -31.1290000 -52.5670000  -6.7760000 -29.6690000 -53.0810000  -8.2420000
 -28.8070000 -52.7690000  -7.6520000 -29.3800000 -53.9360000  -8.8530000
 -30.0880000 -51.9100000  -9.1480000 -30.8720000 -52.2420000  -9.8280000
 -30.4790000 -51.1060000  -8.5240000 -28.9020000 -51.3800000  -9.9670000
 -28.1200000 -51.0230000  -9.2960000 -28.4910000 -52.2000000 -10.5560000
 -29.3080000 -50.2520000 -10.9300000 -28.4580000 -50.0440000 -11.5800000
 -30.1210000 -50.6040000 -11.5650000 -29.7050000 -48.9990000 -10.2230000
 -28.9790000 -48.6800000  -9.5980000 -29.8860000 -48.2610000 -10.8870000
 -30.5550000 -49.1130000  -9.6880000 -32.0350000 -54.0330000  -8.0150000
 -33.0250000 -53.3200000  -8.1680000 -32.0110000 -55.3130000  -8.3880000
 -31.1590000 -55.8340000  -8.2370000 -33.1370000 -56.0080000  -9.0150000
 -33.3390000 -55.5350000  -9.9770000 -32.7180000 -57.4590000  -9.2810000
 -32.4910000 -57.9640000  -8.3430000 -33.5280000 -57.9880000  -9.7840000
 -31.8360000 -57.4780000  -9.9210000 -34.4380000 -55.9350000  -8.1840000
 -35.5150000 -55.7040000  -8.7400000 -34.3430000 -56.1090000  -6.8570000
 -33.4270000 -56.3000000  -6.4750000 -35.4760000 -56.0210000  -5.9190000
 -36.2850000 -56.6440000  -6.3010000 -35.0370000 -56.6000000  -4.5580000
 -34.6700000 -57.6140000  -4.7140000 -34.2230000 -56.0020000  -4.1490000
 -36.1810000 -56.6440000  -3.5320000 -36.5230000 -55.6310000  -3.3230000
 -37.0090000 -57.2200000  -3.9440000 -35.7200000 -57.2880000  -2.2180000
 -35.4020000 -58.3120000  -2.4120000 -34.8820000 -56.7240000  -1.8110000
 -36.8760000 -57.2890000  -1.2100000 -37.1800000 -56.2590000  -1.0240000
 -37.7240000 -57.8130000  -1.6510000 -36.4890000 -57.9410000   0.0660000
 -35.7280000 -57.4570000   0.5210000 -37.2520000 -57.9240000   0.7270000
 -36.2210000 -58.9050000  -0.0710000 -36.0470000 -54.6020000  -5.7830000
 -37.2640000 -54.4200000  -5.8280000 -35.1860000 -53.6060000  -5.5500000
 -34.2050000 -53.8430000  -5.5180000 -35.6060000 -52.2630000  -5.0860000
 -36.4130000 -52.4230000  -4.3710000 -34.5000000 -51.5480000  -4.2880000
 -34.9000000 -50.6040000  -3.9160000 -34.0990000 -52.3880000  -3.0700000
 -33.7010000 -53.3580000  -3.3700000 -33.3270000 -51.8620000  -2.5080000
 -34.9630000 -52.5370000  -2.4220000 -33.2590000 -51.2310000  -5.1270000
 -33.5200000 -50.5860000  -5.9660000 -32.5230000 -50.7160000  -4.5100000
 -32.8220000 -52.1560000  -5.5030000 -36.2070000 -51.3350000  -6.1480000
 -37.0390000 -50.5010000  -5.7970000 -35.8270000 -51.4400000  -7.4290000
 -35.1450000 -52.1410000  -7.6810000 -36.2950000 -50.4870000  -8.4580000
 -36.0460000 -49.4950000  -8.0820000 -35.5360000 -50.6470000  -9.7930000
 -35.6800000 -51.6590000 -10.1720000 -35.9630000 -49.9690000 -10.5320000
 -34.0140000 -50.4090000  -9.7160000 -33.5940000 -51.0330000  -8.9270000
 -33.5820000 -50.7360000 -10.6620000 -33.5300000 -48.9770000  -9.4720000
 -32.3640000 -48.7620000  -9.1670000 -34.3430000 -47.9480000  -9.6010000
 -33.9660000 -47.0300000  -9.4150000 -35.2940000 -48.0650000  -9.9210000
 -37.8370000 -50.4630000  -8.6450000 -38.4040000 -49.3660000  -8.6440000
 -38.5550000 -51.6080000  -8.7290000 -38.0630000 -52.9560000  -8.9800000
 -37.9000000 -53.4670000  -8.0320000 -37.1500000 -52.9740000  -9.5750000
 -39.1800000 -53.6490000  -9.7500000 -39.1380000 -54.7320000  -9.6370000
 -39.1350000 -53.3650000 -10.8010000 -40.4310000 -53.0590000  -9.1070000
 -40.6620000 -53.6190000  -8.2010000 -41.2810000 -53.0810000  -9.7890000
 -40.0250000 -51.6200000  -8.7590000 -40.3670000 -50.9570000  -9.5540000
 -40.6620000 -51.1800000  -7.4320000 -41.6940000 -50.5080000  -7.4270000
 -40.0370000 -51.5350000  -6.3030000 -39.2080000 -52.1060000  -6.3800000
 -40.4880000 -51.1610000  -4.9580000 -41.5200000 -51.4930000  -4.8440000
 -39.6370000 -51.9130000  -3.9260000 -39.7380000 -52.9840000  -4.1040000
 -38.5880000 -51.6550000  -4.0770000 -39.9990000 -51.6420000  -2.4790000
 -39.0610000 -51.0480000  -1.6120000 -38.0810000 -50.7760000  -1.9730000
 -39.4010000 -50.8020000  -0.2670000 -38.6860000 -50.3380000   0.3950000
 -40.6830000 -51.1530000   0.2090000 -41.0260000 -50.8930000   1.4960000
 -40.3990000 -50.2840000   1.8930000 -41.6190000 -51.7520000  -0.6580000
 -42.5980000 -52.0170000  -0.2870000 -41.2740000 -52.0000000  -2.0000000
 -41.9910000 -52.4640000  -2.6610000 -40.4800000 -49.6370000  -4.7300000
 -41.4260000 -49.0970000  -4.1500000 -39.4610000 -48.9250000  -5.2370000
 -38.6830000 -49.4260000  -5.6410000 -39.4760000 -47.4610000  -5.3330000
 -39.5740000 -47.0510000  -4.3280000 -38.1520000 -46.9440000  -5.9330000
 -37.3440000 -47.1380000  -5.2290000 -37.9420000 -47.4990000  -6.8470000
 -38.1750000 -45.4400000  -6.2860000 -38.9870000 -45.2350000  -6.9830000
 -38.3550000 -44.5570000  -5.0530000 -37.5360000 -44.7210000  -4.3520000
 -38.3710000 -43.5110000  -5.3600000 -39.3000000 -44.7800000  -4.5590000
 -36.8810000 -45.0320000  -6.9840000 -36.7510000 -45.6160000  -7.8950000
 -36.9280000 -43.9750000  -7.2440000 -36.0310000 -45.1970000  -6.3210000
 -40.6850000 -46.9610000  -6.1360000 -41.4390000 -46.1180000  -5.6530000
 -40.8710000 -47.4460000  -7.3660000 -40.2330000 -48.1390000  -7.7310000
 -41.9220000 -46.9140000  -8.2350000 -41.7770000 -45.8340000  -8.2570000
 -41.7680000 -47.4140000  -9.6710000 -40.7240000 -47.3260000  -9.9720000
 -42.0570000 -48.4630000  -9.7240000 -42.6260000 -46.5630000 -10.6200000
 -43.4000000 -47.1460000 -11.4140000 -42.5170000 -45.3130000 -10.5760000
 -43.3500000 -47.1490000  -7.7060000 -44.2220000 -46.3020000  -7.8930000
 -43.5940000 -48.2610000  -7.0060000 -42.8560000 -48.9460000  -6.9290000
 -44.8340000 -48.4870000  -6.2530000 -45.6580000 -48.5370000  -6.9640000
 -44.7440000 -49.8370000  -5.5250000 -44.5030000 -50.6110000  -6.2530000
 -43.9320000 -49.7960000  -4.7980000 -46.0480000 -50.2370000  -4.8110000
 -47.1550000 -49.9050000  -5.2980000 -45.9680000 -50.9290000  -3.7670000
 -45.1360000 -47.3330000  -5.2700000 -46.2270000 -46.7560000  -5.2960000
 -44.1520000 -46.9390000  -4.4490000 -43.2610000 -47.4110000  -4.5080000
 -44.2440000 -45.7460000  -3.5980000 -45.1240000 -45.8540000  -2.9650000
 -43.0250000 -45.6570000  -2.6640000 -43.1040000 -46.4450000  -1.9140000
 -42.1140000 -45.8450000  -3.2330000 -42.8800000 -44.3200000  -1.9590000
 -43.7460000 -43.9790000  -0.9010000 -44.4960000 -44.6810000  -0.5670000
 -43.6480000 -42.7160000  -0.2890000 -44.3220000 -42.4480000   0.5110000
 -42.6800000 -41.7940000  -0.7240000 -42.6080000 -40.8250000  -0.2530000
 -41.8100000 -42.1330000  -1.7740000 -41.0690000 -41.4230000  -2.1110000
 -41.9120000 -43.3920000  -2.3930000 -41.2500000 -43.6420000  -3.2090000
 -44.4520000 -44.4510000  -4.4070000 -45.3240000 -43.6550000  -4.0540000
 -43.7200000 -44.2500000  -5.5130000 -43.0220000 -44.9410000  -5.7470000
 -43.9030000 -43.0880000  -6.4000000 -43.7030000 -42.1910000  -5.8140000
 -42.9100000 -43.1020000  -7.5790000 -43.0410000 -44.0160000  -8.1590000
 -43.1350000 -42.2570000  -8.2290000 -41.4490000 -42.9760000  -7.1230000
 -41.3500000 -42.0710000  -6.5230000 -41.1890000 -43.8240000  -6.4880000
 -40.4230000 -42.9180000  -8.2600000 -39.4060000 -42.2510000  -8.1490000
 -40.6050000 -43.5780000  -9.3850000 -39.8840000 -43.4930000 -10.0870000
 -41.4300000 -44.1300000  -9.5700000 -45.3520000 -42.9620000  -6.9080000
 -45.9520000 -41.8930000  -6.7800000 -45.9440000 -44.0470000  -7.4310000
 -45.3910000 -44.8880000  -7.5160000 -47.3530000 -44.0880000  -7.8660000
 -47.5170000 -43.2950000  -8.5950000 -47.6740000 -45.4350000  -8.5430000
 -47.3460000 -46.2590000  -7.9090000 -48.7560000 -45.5040000  -8.6510000
 -47.0450000 -45.5800000  -9.9420000 -47.2720000 -44.6880000 -10.5260000
 -45.9630000 -45.6810000  -9.8580000 -47.6300000 -46.8040000 -10.6660000
 -47.3790000 -47.7170000 -10.1250000 -48.7150000 -46.7070000 -10.6740000
 -47.1710000 -46.9020000 -12.1290000 -47.9740000 -47.3670000 -12.7010000
 -47.0280000 -45.8970000 -12.5260000 -45.9360000 -47.7100000 -12.2980000
 -46.0520000 -48.6460000 -11.9360000 -45.6910000 -47.7920000 -13.2740000
 -45.1350000 -47.3020000 -11.8380000 -48.3320000 -43.8170000  -6.7140000
 -49.2450000 -43.0020000  -6.8650000 -48.1260000 -44.4560000  -5.5550000
 -47.3700000 -45.1250000  -5.5230000 -48.9610000 -44.2880000  -4.3500000
 -49.9880000 -44.5490000  -4.6070000 -48.4730000 -45.2660000  -3.2660000
 -48.4270000 -46.2670000  -3.6970000 -47.4710000 -44.9840000  -2.9430000
 -49.4040000 -45.3130000  -2.0450000 -49.4310000 -44.3330000  -1.5670000
 -50.4090000 -45.5740000  -2.3770000 -48.9070000 -46.3530000  -1.0280000
 -48.8530000 -47.3340000  -1.5000000 -47.9010000 -46.0750000  -0.7120000
 -49.7950000 -46.4350000   0.2240000 -49.2790000 -47.0470000   0.9640000
 -49.9080000 -45.4370000   0.6450000 -51.1300000 -47.0310000  -0.0600000
 -51.0440000 -47.9550000  -0.4600000 -51.6700000 -47.1230000   0.7890000
 -51.6680000 -46.4620000  -0.6970000 -48.9830000 -42.8360000  -3.8550000
 -50.0560000 -42.2830000  -3.6110000 -47.8100000 -42.2050000  -3.7550000
 -46.9710000 -42.7340000  -3.9430000 -47.6720000 -40.7810000  -3.4360000
 -48.1830000 -40.5890000  -2.4930000 -46.1880000 -40.4390000  -3.2460000
 -45.7970000 -41.0390000  -2.4240000 -45.6470000 -40.7290000  -4.1470000
 -45.8640000 -39.0000000  -2.9620000 -46.6880000 -38.0800000  -2.4040000
 -47.7060000 -38.2580000  -2.0900000 -46.0460000 -36.8600000  -2.3340000
 -46.4800000 -36.0200000  -1.9770000 -44.7540000 -36.9400000  -2.8050000
 -43.7160000 -36.0050000  -2.9030000 -43.8740000 -34.9850000  -2.5840000
 -42.4700000 -36.4200000  -3.4020000 -41.6540000 -35.7180000  -3.4800000
 -42.2830000 -37.7590000  -3.7880000 -41.3180000 -38.0740000  -4.1590000
 -43.3350000 -38.6910000  -3.6900000 -43.1740000 -39.7160000  -3.9890000
 -44.6000000 -38.3050000  -3.1950000 -48.3240000 -39.8750000  -4.4930000
 -49.1060000 -38.9940000  -4.1320000 -48.0570000 -40.1060000  -5.7860000
 -47.3910000 -40.8280000  -6.0220000 -48.6280000 -39.3190000  -6.8860000
 -48.2430000 -38.3030000  -6.7980000 -48.1760000 -39.8780000  -8.2480000
 -47.0910000 -39.8070000  -8.3170000 -48.4480000 -40.9320000  -8.3050000
 -48.8060000 -39.1660000  -9.4630000 -48.4480000 -39.6520000 -10.3720000
 -49.8880000 -39.2890000  -9.4400000 -48.4710000 -37.6760000  -9.5650000
 -47.4320000 -37.2010000  -9.1240000 -49.3200000 -36.8760000 -10.1720000
 -49.0880000 -35.8950000 -10.2410000 -50.2130000 -37.2150000 -10.5010000
 -50.1570000 -39.2230000  -6.8040000 -50.6920000 -38.1250000  -6.9170000
 -50.8590000 -40.3410000  -6.5940000 -50.3610000 -41.2180000  -6.5410000
 -52.3210000 -40.3590000  -6.4420000 -52.7590000 -40.0350000  -7.3860000
 -52.7790000 -41.8020000  -6.1710000 -52.4590000 -42.4360000  -6.9980000
 -52.2820000 -42.1640000  -5.2710000 -54.2940000 -41.9710000  -5.9720000
 -54.4940000 -43.0280000  -5.7960000 -54.5890000 -41.4340000  -5.0710000
 -55.1530000 -41.4970000  -7.1650000 -54.6880000 -41.5300000  -8.3300000
 -56.3310000 -41.1220000  -6.9430000 -52.8260000 -39.3820000  -5.3590000
 -53.6970000 -38.5520000  -5.6240000 -52.2670000 -39.4540000  -4.1450000
 -51.5320000 -40.1310000  -4.0000000 -52.6200000 -38.5670000  -3.0260000
 -53.7020000 -38.5930000  -2.8980000 -51.9870000 -39.1150000  -1.7330000
 -52.3790000 -40.1200000  -1.5710000 -50.9060000 -39.1790000  -1.8530000
 -52.3060000 -38.2570000  -0.5000000 -51.7000000 -37.3510000  -0.5310000
 -53.3530000 -37.9600000  -0.5510000 -52.0620000 -38.9870000   0.8390000
 -52.7720000 -38.6520000   1.8210000 -51.1620000 -39.8560000   0.9310000
 -52.2410000 -37.0930000  -3.2820000 -53.0240000 -36.1860000  -2.9950000
 -51.0540000 -36.8470000  -3.8420000 -50.4650000 -37.6400000  -4.0550000
 -50.5530000 -35.5130000  -4.1960000 -50.6160000 -34.8750000  -3.3150000
 -49.0690000 -35.6640000  -4.5640000 -48.5420000 -36.0410000  -3.6880000
 -48.9690000 -36.3970000  -5.3650000 -48.3960000 -34.3630000  -5.0110000
 -48.6880000 -34.1460000  -6.0380000 -48.7550000 -33.5510000  -4.3780000
 -46.5820000 -34.3880000  -4.8990000 -46.1780000 -35.8200000  -5.9380000
 -46.5910000 -35.6820000  -6.9370000 -45.0950000 -35.9220000  -6.0060000
 -46.5870000 -36.7290000  -5.4940000 -51.3760000 -34.8350000  -5.3080000
 -51.6730000 -33.6420000  -5.2390000 -51.7920000 -35.5970000  -6.3180000
 -51.4920000 -36.5620000  -6.3360000 -52.6790000 -35.1550000  -7.3970000
 -52.2800000 -34.2310000  -7.8160000 -52.6550000 -36.2230000  -8.5000000
 -51.6080000 -36.3950000  -8.7520000 -53.0770000 -37.1530000  -8.1200000
 -53.4000000 -35.8250000  -9.7770000 -54.4670000 -35.7770000  -9.5610000
 -53.0710000 -34.8310000 -10.0810000 -53.1360000 -36.8140000 -10.9350000
 -54.0770000 -37.0780000 -11.7240000 -51.9920000 -37.3160000 -11.0900000
 -54.1000000 -34.8510000  -6.8900000 -54.6730000 -33.8140000  -7.2320000
 -54.6430000 -35.7070000  -6.0130000 -54.1400000 -36.5560000  -5.7980000
 -55.9030000 -35.4630000  -5.3050000 -56.6810000 -35.3140000  -6.0550000
 -56.2620000 -36.7160000  -4.4840000 -56.3700000 -37.5590000  -5.1670000
 -55.4330000 -36.9390000  -3.8120000 -57.5430000 -36.5980000  -3.6360000
 -57.4360000 -35.7770000  -2.9260000 -58.7890000 -36.3550000  -4.4880000
 -58.8910000 -37.1430000  -5.2350000 -59.6740000 -36.3480000  -3.8510000
 -58.7210000 -35.3890000  -4.9870000 -57.7510000 -37.8850000  -2.8390000
 -56.8900000 -38.0620000  -2.1940000 -58.6410000 -37.7940000  -2.2170000
 -57.8710000 -38.7310000  -3.5160000 -55.8510000 -34.1850000  -4.4490000
 -56.7800000 -33.3820000  -4.4950000 -54.7590000 -33.9570000  -3.7090000
 -54.0560000 -34.6800000  -3.6630000 -54.5180000 -32.7060000  -2.9780000
 -55.3140000 -32.5770000  -2.2440000 -53.1940000 -32.8020000  -2.2100000
 -53.3120000 -33.5660000  -1.4410000 -52.4040000 -33.1420000  -2.8790000
 -52.7480000 -31.5040000  -1.5630000 -51.8540000 -30.6570000  -2.2490000
 -51.4580000 -30.9500000  -3.2100000 -51.4990000 -29.4100000  -1.7010000
 -50.8370000 -28.7510000  -2.2430000 -52.0230000 -29.0170000  -0.4510000
 -51.7230000 -27.7950000   0.0620000 -51.0880000 -27.3240000  -0.4830000
 -52.8860000 -29.8840000   0.2540000 -53.2900000 -29.5690000   1.2050000
 -53.2590000 -31.1210000  -0.3070000 -53.9530000 -31.7600000   0.2180000
 -54.5530000 -31.4730000  -3.8930000 -55.2890000 -30.5250000  -3.6170000
 -53.8220000 -31.4990000  -5.0170000 -53.2240000 -32.2980000  -5.1720000
 -53.8260000 -30.4170000  -6.0180000 -53.4690000 -29.5070000  -5.5360000
 -52.8520000 -30.7810000  -7.1520000 -51.9110000 -31.1060000  -6.7090000
 -53.2570000 -31.6080000  -7.7350000 -52.5740000 -29.5910000  -8.0860000
 -53.5140000 -29.2360000  -8.5080000 -52.1220000 -28.7790000  -7.5170000
 -51.6470000 -29.9770000  -9.2450000 -52.1070000 -30.7960000  -9.7980000
 -51.5540000 -29.1190000  -9.9110000 -50.3020000 -30.3760000  -8.7790000
 -50.0790000 -30.1950000  -7.8110000 -49.3490000 -30.9270000  -9.5110000
 -48.2130000 -31.2660000  -8.9700000 -48.0580000 -31.1280000  -7.9820000
 -47.4870000 -31.6850000  -9.5330000 -49.5010000 -31.1550000 -10.7840000
 -50.3670000 -30.8850000 -11.2300000 -48.7600000 -31.5690000 -11.3320000
 -55.2430000 -30.1170000  -6.5280000 -55.6770000 -28.9660000  -6.4970000
 -55.9790000 -31.1600000  -6.9230000 -55.5320000 -32.0650000  -6.9270000
 -57.3830000 -31.0840000  -7.3490000 -57.4360000 -30.4320000  -8.2200000
 -57.8380000 -32.4890000  -7.7870000 -57.1820000 -32.8270000  -8.5890000
 -57.7350000 -33.1810000  -6.9510000 -59.2930000 -32.5360000  -8.2800000
 -59.9660000 -32.2480000  -7.4730000 -59.4150000 -31.8320000  -9.1020000
 -59.6900000 -33.9300000  -8.7650000 -60.5020000 -34.6210000  -8.1630000
 -59.1260000 -34.4130000  -9.8540000 -59.3880000 -35.3380000 -10.1610000
 -58.4560000 -33.8620000 -10.3710000 -58.3090000 -30.4780000  -6.2730000
 -59.1440000 -29.6290000  -6.5850000 -58.1590000 -30.9010000  -5.0100000
 -57.4920000 -31.6420000  -4.8490000 -58.9250000 -30.4130000  -3.8490000
 -59.9890000 -30.5140000  -4.0640000 -58.5860000 -31.3180000  -2.6480000
 -58.7570000 -32.3540000  -2.9410000 -57.5300000 -31.2030000  -2.4020000
 -59.4190000 -31.0290000  -1.3880000 -59.3660000 -29.9660000  -1.1520000
 -60.4610000 -31.2890000  -1.5750000 -58.9040000 -31.8040000  -0.1650000
 -57.8680000 -31.5160000   0.0140000 -59.4970000 -31.5080000   0.7010000
 -58.9820000 -33.3310000  -0.3290000 -60.0150000 -33.6090000  -0.5360000
 -58.3770000 -33.6270000  -1.1860000 -58.5010000 -34.0300000   0.8940000
 -59.0800000 -33.8090000   1.6920000 -58.5130000 -35.0330000   0.7760000
 -57.5610000 -33.7490000   1.1350000 -58.6690000 -28.9300000  -3.5390000
 -59.6150000 -28.1700000  -3.3250000 -57.3970000 -28.5280000  -3.4860000
 -56.6890000 -29.2280000  -3.6550000 -56.9510000 -27.2010000  -3.0170000
 -57.6170000 -26.8950000  -2.2110000 -55.5360000 -27.2830000  -2.4090000
 -54.8600000 -27.7520000  -3.1240000 -54.9560000 -25.9120000  -2.0370000
 -55.6430000 -25.3760000  -1.3830000 -53.9990000 -26.0390000  -1.5310000
 -54.7790000 -25.3190000  -2.9350000 -55.5920000 -28.1400000  -1.1360000
 -55.7790000 -29.1840000  -1.3880000 -54.6390000 -28.0780000  -0.6110000
 -56.3810000 -27.7880000  -0.4720000 -57.0680000 -26.0930000  -4.0650000
 -57.4660000 -24.9820000  -3.7200000 -56.7200000 -26.3510000  -5.3290000
 -56.4110000 -27.2810000  -5.5730000 -56.7070000 -25.3210000  -6.3820000
 -55.9410000 -24.6020000  -6.0920000 -56.2310000 -25.9150000  -7.7200000
 -55.2230000 -26.3040000  -7.5750000 -56.8730000 -26.7420000  -8.0240000
 -56.1900000 -24.8670000  -8.8390000 -57.2070000 -24.6360000  -9.1540000
 -55.7450000 -23.9530000  -8.4440000 -55.3730000 -25.3470000 -10.0530000
 -54.4690000 -24.5990000 -10.5020000 -55.6330000 -26.4580000 -10.5780000
 -58.0100000 -24.4880000  -6.4930000 -57.9040000 -23.2590000  -6.5300000
 -59.2270000 -25.0780000  -6.4860000 -59.5180000 -26.4980000  -6.6060000
 -59.4600000 -26.9650000  -5.6230000 -58.8470000 -27.0010000  -7.3020000
 -60.9480000 -26.5820000  -7.1280000 -61.4320000 -27.5140000  -6.8360000
 -60.9510000 -26.4660000  -8.2120000 -61.6050000 -25.3700000  -6.4760000
 -61.8940000 -25.6270000  -5.4570000 -62.4720000 -25.0290000  -7.0420000
 -60.4840000 -24.3230000  -6.4720000 -60.5430000 -23.7470000  -7.3950000
 -60.6160000 -23.3570000  -5.2830000 -60.9780000 -22.1960000  -5.4750000
 -60.2950000 -23.8090000  -4.0610000 -59.9770000 -24.7640000  -3.9780000
 -60.2860000 -22.9720000  -2.8520000 -61.2750000 -22.5290000  -2.7410000
 -60.0180000 -23.8640000  -1.6200000 -60.8340000 -24.5810000  -1.5270000
 -59.1000000 -24.4270000  -1.7890000 -59.8630000 -23.1090000  -0.2830000
 -59.0320000 -22.4080000  -0.3530000 -61.1270000 -22.3430000   0.1090000
 -61.9750000 -23.0240000   0.1650000 -60.9820000 -21.8710000   1.0810000
 -61.3350000 -21.5620000  -0.6220000 -59.5480000 -24.1030000   0.8340000
 -58.6350000 -24.6480000   0.5930000 -59.4020000 -23.5670000   1.7710000
 -60.3680000 -24.8120000   0.9500000 -59.2830000 -21.8130000  -2.9650000
 -59.6290000 -20.6660000  -2.6780000 -58.0550000 -22.1010000  -3.4200000
 -57.8530000 -23.0700000  -3.6190000 -56.9980000 -21.1020000  -3.6620000
 -56.7860000 -20.5880000  -2.7250000 -55.7210000 -21.8370000  -4.1150000
 -55.4840000 -22.6050000  -3.3790000 -55.9090000 -22.3320000  -5.0680000
 -54.5040000 -20.9080000  -4.2560000 -54.7020000 -20.1360000  -4.9990000
 -54.3180000 -20.4250000  -3.2970000 -53.2450000 -21.6850000  -4.6640000
 -52.3900000 -21.0120000  -4.6110000 -53.0930000 -22.4930000  -3.9470000
 -53.3460000 -22.2240000  -6.0400000 -53.9970000 -21.7640000  -6.6610000
 -52.6320000 -23.2040000  -6.5660000 -52.8080000 -23.5580000  -7.8060000
 -53.4790000 -23.0840000  -8.3930000 -52.2540000 -24.2970000  -8.2150000
 -51.7310000 -23.8480000  -5.8810000 -51.5660000 -23.5920000  -4.9180000
 -51.2040000 -24.6030000  -6.2970000 -57.4500000 -20.0280000  -4.6610000
 -57.3400000 -18.8360000  -4.3750000 -57.9940000 -20.4500000  -5.8040000
 -58.0400000 -21.4460000  -5.9640000 -58.5410000 -19.5680000  -6.8350000
 -57.7520000 -18.8920000  -7.1630000 -58.9580000 -20.4240000  -8.0360000
 -59.7380000 -21.1280000  -7.7480000 -59.3350000 -19.7810000  -8.8310000
 -58.0970000 -20.9790000  -8.4110000 -59.7030000 -18.6980000  -6.3160000
 -59.6780000 -17.4780000  -6.4780000 -60.6980000 -19.3060000  -5.6620000
 -60.6720000 -20.3130000  -5.5820000 -61.8390000 -18.6100000  -5.0520000
 -62.3840000 -18.0930000  -5.8420000 -62.7970000 -19.6390000  -4.4260000
 -63.1170000 -20.3250000  -5.2110000 -62.2700000 -20.2080000  -3.6600000
 -64.0340000 -18.9860000  -3.7940000 -63.7160000 -18.3370000  -2.9790000
 -64.5250000 -18.3670000  -4.5440000 -65.0440000 -20.0210000  -3.2580000
 -65.3440000 -21.0250000  -3.9500000 -65.5760000 -19.8190000  -2.1380000
 -61.4030000 -17.5390000  -4.0390000 -61.8490000 -16.3930000  -4.1230000
 -60.5110000 -17.8900000  -3.1050000 -60.2050000 -18.8530000  -3.0750000
 -59.9220000 -16.9550000  -2.1440000 -60.7290000 -16.5350000  -1.5430000
 -58.9760000 -17.7360000  -1.2120000 -59.5660000 -18.4450000  -0.6320000
 -58.2770000 -18.3080000  -1.8230000 -58.1540000 -16.8580000  -0.2510000
 -57.5140000 -16.1830000  -0.8190000 -59.0500000 -16.0350000   0.6750000
 -59.7460000 -16.6940000   1.1940000 -58.4400000 -15.5000000   1.4020000
 -59.6130000 -15.2980000   0.1020000 -57.2570000 -17.7520000   0.6000000
 -56.6190000 -18.3550000  -0.0460000 -56.6190000 -17.1360000   1.2330000
 -57.8630000 -18.4120000   1.2220000 -59.2090000 -15.7810000  -2.8350000
 -59.4790000 -14.6220000  -2.5190000 -58.3090000 -16.0720000  -3.7790000
 -58.1320000 -17.0440000  -3.9920000 -57.5510000 -15.0560000  -4.5120000
 -57.0150000 -14.4540000  -3.7790000 -56.5130000 -15.7560000  -5.4080000
 -55.8340000 -16.3290000  -4.7760000 -57.0330000 -16.4540000  -6.0630000
 -55.6820000 -14.8140000  -6.2920000 -55.0320000 -15.4240000  -6.9200000
 -56.3450000 -14.2570000  -6.9540000 -54.8100000 -13.8380000  -5.5020000
 -53.6290000 -14.0650000  -5.2810000 -55.3500000 -12.7240000  -5.0480000
 -54.7600000 -12.0830000  -4.5360000 -56.3240000 -12.5180000  -5.2180000
 -58.4620000 -14.0990000  -5.2980000 -58.2460000 -12.8870000  -5.2710000
 -59.4780000 -14.6240000  -5.9830000 -59.5770000 -15.6290000  -5.9970000
 -60.4980000 -13.8290000  -6.6720000 -59.9940000 -13.1440000  -7.3540000
 -61.3840000 -14.7560000  -7.5190000 -60.7410000 -15.2610000  -8.2400000
 -61.8410000 -15.5160000  -6.8850000 -62.4890000 -13.9960000  -8.2680000
 -63.4220000 -14.0760000  -7.7110000 -62.2350000 -12.9370000  -8.3170000
 -62.6640000 -14.5260000  -9.7020000 -63.3800000 -15.5370000  -9.9030000
 -62.0850000 -13.9160000 -10.6360000 -61.3140000 -12.9620000  -5.7010000
 -61.4440000 -11.7590000  -5.9200000 -61.8160000 -13.5370000  -4.6030000
 -61.6900000 -14.5320000  -4.4800000 -62.5320000 -12.8000000  -3.5550000
 -63.4610000 -12.4070000  -3.9680000 -62.7770000 -13.4800000  -2.7390000
 -61.7180000 -11.6320000  -2.9870000 -62.2140000 -10.5070000  -2.9180000
 -60.4450000 -11.8740000  -2.6550000 -60.1120000 -12.8250000  -2.7110000
 -59.4980000 -10.8430000  -2.2260000 -59.8900000 -10.3740000  -1.3240000
 -58.1690000 -11.5190000  -1.8660000 -57.7450000 -12.0160000  -2.7390000
 -57.4620000 -10.7720000  -1.5050000 -58.3310000 -12.2580000  -1.0820000
 -59.3190000  -9.7290000  -3.2770000 -59.4190000  -8.5480000  -2.9380000
 -59.1140000 -10.0890000  -4.5550000 -59.0360000 -11.0770000  -4.7540000
 -59.0080000  -9.1420000  -5.6840000 -58.1680000  -8.4730000  -5.4970000
 -58.7290000  -9.9250000  -6.9830000 -57.9010000 -10.6140000  -6.8160000
 -59.6100000 -10.5150000  -7.2380000 -58.3600000  -9.0120000  -8.1670000
 -59.0150000  -8.1410000  -8.2010000 -57.3360000  -8.6620000  -8.0320000
 -58.4670000  -9.7460000  -9.5100000 -58.0180000  -9.1210000 -10.2820000
 -57.9010000 -10.6750000  -9.4520000 -59.8810000  -9.9910000  -9.8720000
 -60.4940000  -9.1880000  -9.8570000 -60.4500000 -11.1270000 -10.2300000
 -61.7210000 -11.1760000 -10.4650000 -62.2990000 -10.3630000 -10.3070000
 -62.1180000 -12.0780000 -10.6840000 -59.8220000 -12.2570000 -10.3590000
 -58.8180000 -12.3060000 -10.2600000 -60.3710000 -13.0640000 -10.6160000
 -60.2560000  -8.2620000  -5.8160000 -60.1410000  -7.0410000  -5.8850000
 -61.4460000  -8.8660000  -5.8110000 -61.4590000  -9.8750000  -5.7550000
 -62.7250000  -8.1450000  -5.8740000 -62.7160000  -7.5140000  -6.7630000
 -63.8990000  -9.1340000  -5.9990000 -63.8430000  -9.8620000  -5.1890000
 -64.8340000  -8.5870000  -5.8860000 -63.9330000  -9.8900000  -7.3410000
 -63.0470000 -10.5180000  -7.4310000 -64.8050000 -10.5440000  -7.3440000
 -64.0080000  -8.9780000  -8.5650000 -63.1300000  -8.9770000  -9.4190000
 -65.0250000  -8.1550000  -8.6970000 -65.0570000  -7.5640000  -9.5160000
 -65.7750000  -8.1470000  -8.0210000 -62.9200000  -7.1960000  -4.6820000
 -63.2590000  -6.0300000  -4.8830000 -62.6530000  -7.6530000  -3.4490000
 -62.4100000  -8.6280000  -3.3470000 -62.7560000  -6.8260000  -2.2310000
 -63.7660000  -6.4170000  -2.1980000 -62.5330000  -7.7210000  -0.9930000
 -63.0560000  -8.6670000  -1.1320000 -61.4710000  -7.9500000  -0.9030000
 -63.0250000  -7.0960000   0.3250000 -62.6290000  -7.6910000   1.1490000
 -62.6400000  -6.0810000   0.4210000 -64.5610000  -7.0990000   0.4190000
 -64.9970000  -6.4810000  -0.3650000 -64.9090000  -8.1220000   0.2710000
 -65.0740000  -6.6300000   1.7880000 -66.1170000  -6.9350000   1.8770000
 -64.5170000  -7.1460000   2.5700000 -64.9820000  -5.1520000   1.9620000
 -65.5140000  -4.6660000   1.2540000 -65.3720000  -4.8860000   2.8550000
 -64.0280000  -4.8230000   1.9300000 -61.7980000  -5.6280000  -2.2630000
 -62.2010000  -4.5040000  -1.9690000 -60.5480000  -5.8590000  -2.6760000
 -60.2880000  -6.8140000  -2.8740000 -59.5490000  -4.8110000  -2.9110000
 -59.4130000  -4.2570000  -1.9820000 -58.2040000  -5.4770000  -3.2620000
 -57.9060000  -6.0780000  -2.4030000 -58.3390000  -6.1630000  -4.0990000
 -57.0780000  -4.4760000  -3.6000000 -57.3020000  -3.5050000  -3.1580000
 -55.7450000  -4.9520000  -3.0260000 -55.4720000  -5.9150000  -3.4570000
 -54.9720000  -4.2180000  -3.2520000 -55.8200000  -5.0460000  -1.9420000
 -56.8900000  -4.3190000  -5.1120000 -57.7910000  -3.9130000  -5.5710000
 -56.0670000  -3.6330000  -5.3130000 -56.6610000  -5.2830000  -5.5650000
 -60.0110000  -3.7960000  -3.9680000 -59.9450000  -2.5950000  -3.7220000
 -60.4990000  -4.2560000  -5.1220000 -60.4940000  -5.2520000  -5.2900000
 -60.9660000  -3.3720000  -6.1940000 -60.1700000  -2.6560000  -6.3980000
 -61.1790000  -4.1790000  -7.4790000 -60.2550000  -4.6980000  -7.7330000
 -61.9550000  -4.9260000  -7.3090000 -61.5760000  -3.3110000  -8.6490000
 -60.8720000  -2.2330000  -9.1410000 -59.9870000  -1.8830000  -8.8030000
 -61.6020000  -1.6650000 -10.1160000 -61.3050000  -0.7890000 -10.6740000
 -62.7600000  -2.3310000 -10.2850000 -62.7540000  -3.3720000  -9.3450000
 -63.5460000  -4.0880000  -9.1800000 -62.2130000  -2.5570000  -5.8020000
 -62.3060000  -1.3740000  -6.1270000 -63.1490000  -3.1450000  -5.0510000
 -63.0640000  -4.1340000  -4.8620000 -64.2720000  -2.4180000  -4.4470000
 -64.8420000  -1.9530000  -5.2520000 -65.1950000  -3.4040000  -3.7100000
 -65.5310000  -4.1690000  -4.4100000 -64.6230000  -3.9030000  -2.9290000
 -66.4250000  -2.7560000  -3.0520000 -66.9700000  -3.5360000  -2.5220000
 -66.0850000  -2.0390000  -2.3050000 -67.3930000  -2.0630000  -4.0370000
 -67.4000000  -2.3830000  -5.2510000 -68.1960000  -1.2100000  -3.5850000
 -63.7900000  -1.2820000  -3.5280000 -64.2220000  -0.1380000  -3.6740000
 -62.8660000  -1.5720000  -2.6020000 -62.5560000  -2.5300000  -2.5130000
 -62.2720000  -0.5610000  -1.7210000 -63.0930000  -0.0660000  -1.2020000
 -61.3950000  -1.2690000  -0.6710000 -62.0060000  -2.0090000  -0.1530000
 -60.5940000  -1.8000000  -1.1860000 -60.7610000  -0.3320000   0.3750000
 -60.1050000   0.3800000  -0.1260000 -61.8150000   0.4360000   1.1780000
 -62.5450000  -0.2530000   1.6010000 -61.3370000   0.9910000   1.9850000
 -62.3270000   1.1530000   0.5360000 -59.9190000  -1.1580000   1.3460000
 -59.1070000  -1.6420000   0.8040000 -59.4880000  -0.5110000   2.1100000
 -60.5330000  -1.9220000   1.8230000 -61.5110000   0.5290000  -2.5020000
 -61.6780000   1.7150000  -2.2280000 -60.7180000   0.1410000  -3.5020000
 -60.6090000  -0.8520000  -3.6490000 -60.0320000   1.0420000  -4.4360000
 -59.3120000   1.6400000  -3.8770000 -59.2640000   0.1730000  -5.4470000
 -58.5920000  -0.4920000  -4.9030000 -59.9880000  -0.4480000  -5.9750000
 -58.4420000   0.9320000  -6.4970000 -59.0760000   1.6440000  -7.0250000
 -57.6460000   1.4850000  -5.9980000 -57.8500000  -0.0320000  -7.5290000
 -58.5290000  -0.8810000  -8.0950000 -56.5680000   0.0490000  -7.8200000
 -56.1990000  -0.6000000  -8.5000000 -55.9750000   0.7320000  -7.3710000
 -61.0100000   2.0160000  -5.1210000 -60.8010000   3.2300000  -5.0920000
 -62.1000000   1.4990000  -5.6950000 -62.2050000   0.4950000  -5.6970000
 -63.1830000   2.2890000  -6.2900000 -62.7560000   2.9000000  -7.0850000
 -64.2150000   1.3390000  -6.9250000 -63.7280000   0.7740000  -7.7200000
 -64.5460000   0.6230000  -6.1720000 -65.4700000   2.0180000  -7.4960000
 -66.1000000   1.2450000  -7.9370000 -66.0320000   2.4560000  -6.6720000
 -65.1920000   3.0980000  -8.5650000 -64.1480000   3.0460000  -9.2600000
 -66.0520000   3.9950000  -8.7470000 -63.8340000   3.2600000  -5.2870000
 -64.0500000   4.4260000  -5.6200000 -64.1250000   2.8070000  -4.0580000
 -63.9640000   1.8280000  -3.8690000 -64.6860000   3.6440000  -2.9800000
 -65.6040000   4.1080000  -3.3410000 -65.0380000   2.7650000  -1.7650000
 -64.1920000   2.1220000  -1.5250000 -65.2260000   3.4110000  -0.9070000
 -66.2920000   1.9080000  -2.0160000 -67.1680000   2.5560000  -2.0400000
 -66.2160000   1.4270000  -2.9910000 -66.4900000   0.8050000  -0.9620000
 -67.3760000   0.2270000  -1.2250000 -65.6360000   0.1290000  -1.0080000
 -66.6330000   1.3040000   0.4850000 -66.6640000   0.4360000   1.1430000
 -65.7490000   1.8840000   0.7510000 -67.8600000   2.1210000   0.6890000
 -68.6980000   1.6060000   0.4580000 -67.9310000   2.4180000   1.6510000
 -67.8360000   2.9670000   0.1370000 -63.7590000   4.8000000  -2.5730000
 -64.2160000   5.9400000  -2.4690000 -62.4700000   4.5210000  -2.3500000
 -62.1830000   3.5570000  -2.4380000 -61.4730000   5.5110000  -1.9150000
 -61.8970000   6.0920000  -1.0960000 -60.2170000   4.7820000  -1.3970000
 -59.8490000   4.1350000  -2.1940000 -59.4410000   5.5200000  -1.1920000
 -60.4240000   3.9340000  -0.1280000 -61.2660000   3.2550000  -0.2630000
 -59.1680000   3.1060000   0.1360000 -58.3140000   3.7620000   0.3070000
 -59.3220000   2.4760000   1.0120000 -58.9620000   2.4660000  -0.7220000
 -60.6940000   4.7800000   1.1130000 -61.6060000   5.3610000   0.9820000
 -60.8330000   4.1240000   1.9720000 -59.8550000   5.4480000   1.3080000
 -61.0770000   6.5290000  -3.0010000 -60.8680000   7.7030000  -2.6900000
 -60.9470000   6.0900000  -4.2590000 -61.1270000   5.1120000  -4.4340000
 -60.3310000   6.8720000  -5.3470000 -59.2870000   7.0140000  -5.0670000
 -60.3040000   6.0520000  -6.6470000 -59.6790000   5.1720000  -6.4930000
 -61.3070000   5.7120000  -6.9050000 -59.7750000   6.8110000  -7.7180000
 -59.8010000   6.2750000  -8.5140000 -60.9010000   8.2960000  -5.5440000
 -60.1020000   9.2390000  -5.5630000 -62.2340000   8.5200000  -5.6240000
 -63.2960000   7.5280000  -5.7040000 -63.5970000   7.2350000  -4.6990000
 -62.9970000   6.6540000  -6.2820000 -64.4560000   8.2210000  -6.4100000
 -65.4160000   7.7840000  -6.1360000 -64.3060000   8.1820000  -7.4890000
 -64.3250000   9.6600000  -5.9230000 -64.7930000   9.7490000  -4.9420000
 -64.7730000  10.3640000  -6.6230000 -62.8070000   9.8570000  -5.8180000
 -62.4430000  10.2450000  -6.7690000 -62.4370000  10.8540000  -4.7120000
 -62.0050000  11.9680000  -5.0090000 -62.5670000  10.4590000  -3.4380000
 -62.9130000   9.5280000  -3.2590000 -62.1940000  11.2970000  -2.2900000
 -62.6570000  12.2740000  -2.4330000 -62.7900000  10.6840000  -1.0070000
 -63.8720000  10.6370000  -1.1210000 -62.4240000   9.6620000  -0.9090000
 -62.4660000  11.4450000   0.2970000 -61.3890000  11.4460000   0.4600000
 -62.9630000  12.8910000   0.2830000 -64.0330000  12.9190000   0.0800000
 -62.7680000  13.3560000   1.2500000 -62.4360000  13.4640000  -0.4800000
 -63.1300000  10.7390000   1.4800000 -62.7950000   9.7030000   1.5300000
 -62.8590000  11.2420000   2.4070000 -64.2140000  10.7560000   1.3670000
 -60.6740000  11.5330000  -2.2060000 -60.2400000  12.6400000  -1.8880000
 -59.8620000  10.5240000  -2.5420000 -60.2760000   9.6290000  -2.7590000
 -58.4050000  10.6600000  -2.6620000 -57.9930000  10.9680000  -1.7010000
 -57.9760000   9.6920000  -2.9220000 -57.9750000  11.6790000  -3.7270000
 -57.0830000  12.4930000  -3.4850000 -58.6120000  11.6670000  -4.9020000
 -59.3000000  10.9480000  -5.0720000 -58.3990000  12.6870000  -5.9370000
 -57.3230000  12.8000000  -6.0720000 -58.9920000  12.2430000  -7.2860000
 -58.6370000  11.2380000  -7.5160000 -60.0780000  12.2020000  -7.2000000
 -58.6230000  13.1820000  -8.4530000 -59.1020000  12.8050000  -9.3570000
 -59.0340000  14.1720000  -8.2580000 -57.1030000  13.2810000  -8.7010000
 -56.5710000  14.4070000  -8.8600000 -56.4130000  12.2340000  -8.7090000
 -58.9130000  14.0680000  -5.5090000 -58.1840000  15.0420000  -5.6480000
 -60.1230000  14.1660000  -4.9460000 -60.6870000  13.3300000  -4.8850000
 -60.6910000  15.4120000  -4.4020000 -60.8430000  16.1060000  -5.2290000
 -62.0650000  15.1250000  -3.7680000 -62.6930000  14.5920000  -4.4820000
 -61.9110000  14.4810000  -2.9010000 -62.8110000  16.3880000  -3.3110000
 -62.1000000  17.1600000  -3.0170000 -63.3870000  16.7830000  -4.1480000
 -63.7410000  16.0980000  -2.1200000 -64.7290000  15.3410000  -2.2770000
 -63.4830000  16.6580000  -1.0240000 -59.7460000  16.0980000  -3.3980000
 -59.4930000  17.2980000  -3.4990000 -59.2000000  15.3370000  -2.4430000
 -59.4760000  14.3670000  -2.4020000 -58.2230000  15.8120000  -1.4580000
 -58.7000000  16.5710000  -0.8370000 -57.8420000  14.6240000  -0.5600000
 -58.7500000  14.2480000  -0.0880000 -57.4280000  13.8280000  -1.1800000
 -56.8200000  14.9600000   0.5310000 -55.9340000  15.3900000   0.0650000
 -57.2430000  15.7040000   1.2060000 -56.2820000  13.5190000   1.4960000
 -57.8090000  13.1110000   2.3850000 -58.6080000  12.8760000   1.6820000
 -57.6300000  12.2380000   3.0130000 -58.1080000  13.9530000   3.0090000
 -56.9920000  16.4660000  -2.1140000 -56.6110000  17.5810000  -1.7480000
 -56.3920000  15.8030000  -3.1120000 -56.7680000  14.9020000  -3.3730000
 -55.2610000  16.3470000  -3.8870000 -54.5340000  16.7700000  -3.1940000
 -54.5690000  15.2160000  -4.6680000 -55.3180000  14.6530000  -5.2250000
 -53.8630000  15.6530000  -5.3740000 -53.7950000  14.2800000  -3.7180000
 -53.0490000  14.8710000  -3.1870000 -54.4770000  13.8570000  -2.9800000
 -53.0690000  13.1310000  -4.4330000 -52.4420000  13.5250000  -5.2340000
 -52.4070000  12.6530000  -3.7110000 -54.0100000  12.1070000  -4.9320000
 -54.3570000  11.4560000  -4.2420000 -54.5170000  11.9950000  -6.1450000
 -55.3810000  11.0740000  -6.4390000 -55.6650000  10.3690000  -5.7740000
 -55.8090000  11.1340000  -7.3520000 -54.2280000  12.8020000  -7.1190000
 -53.5300000  13.5230000  -7.0010000 -54.7960000  12.7280000  -7.9510000
 -55.6750000  17.5110000  -4.7940000 -54.9360000  18.4820000  -4.9090000
 -56.8650000  17.4760000  -5.3850000 -57.4180000  16.6370000  -5.2840000
 -57.4160000  18.5780000  -6.1800000 -56.6940000  18.8070000  -6.9640000
 -58.7350000  18.1590000  -6.8420000 -58.6300000  17.1560000  -7.2560000
 -59.5290000  18.1350000  -6.0970000 -59.1050000  19.1100000  -7.9900000
 -60.2380000  19.6450000  -7.9960000 -58.2660000  19.2840000  -8.9080000
 -57.5970000  19.8640000  -5.3640000 -57.1910000  20.9400000  -5.8020000
 -58.1380000  19.7470000  -4.1440000 -58.4870000  18.8370000  -3.8800000
 -58.2120000  20.8300000  -3.1530000 -58.7560000  21.6660000  -3.5930000
 -59.0190000  20.3260000  -1.9440000 -60.0450000  20.1710000  -2.2760000
 -58.6220000  19.3640000  -1.6200000 -59.0230000  21.2760000  -0.7320000
 -58.0730000  21.1790000  -0.2070000 -59.1220000  22.3050000  -1.0760000
 -60.1690000  20.9910000   0.2530000 -59.9810000  21.5510000   1.1690000
 -61.0970000  21.3770000  -0.1710000 -60.3010000  19.5530000   0.5840000
 -59.5950000  19.1680000   1.1950000 -61.2460000  18.7260000   0.1680000
 -61.2600000  17.4710000   0.4990000 -60.5590000  17.0690000   1.1050000
 -62.0150000  16.9120000   0.1280000 -62.2260000  19.0910000  -0.5990000
 -62.3120000  20.0480000  -0.9100000 -62.8880000  18.3800000  -0.8740000
 -56.8240000  21.3700000  -2.7910000 -56.6450000  22.5870000  -2.7530000
 -55.8320000  20.4950000  -2.6050000 -56.0560000  19.5100000  -2.6120000
 -54.4370000  20.8950000  -2.4060000 -54.3940000  21.5140000  -1.5100000
 -53.5830000  19.6470000  -2.1480000 -53.3750000  19.1150000  -3.0770000
 -52.6350000  19.9490000  -1.7030000 -54.0910000  18.9710000  -1.4600000
 -53.8910000  21.7410000  -3.5790000 -53.4180000  22.8600000  -3.3650000
 -54.0160000  21.2450000  -4.8240000 -54.4130000  20.3200000  -4.9140000
 -53.6410000  21.9700000  -6.0560000 -52.5700000  22.1760000  -6.0350000
 -53.9580000  21.1300000  -7.3120000 -55.0120000  20.8490000  -7.2970000
 -53.7900000  21.7530000  -8.1900000 -53.0990000  19.8590000  -7.4620000
 -52.0480000  20.1460000  -7.4410000 -53.2780000  19.1820000  -6.6270000
 -53.3590000  19.1070000  -8.7790000 -53.1180000  19.7730000  -9.6080000
 -52.6730000  18.2620000  -8.8350000 -54.7630000  18.6540000  -8.9280000
 -55.4440000  19.3720000  -9.1270000 -55.2270000  17.4150000  -8.9420000
 -56.4830000  17.1760000  -9.1360000 -57.1430000  17.9370000  -9.2170000
 -56.7830000  16.2130000  -9.0990000 -54.5080000  16.3500000  -8.7630000
 -53.5070000  16.4180000  -8.6510000 -54.9970000  15.4670000  -8.8040000
 -54.3360000  23.3350000  -6.1440000 -53.6700000  24.3600000  -6.2970000
 -55.6620000  23.3560000  -5.9850000 -56.1340000  22.4710000  -5.8660000
 -56.4860000  24.5630000  -6.0370000 -56.3610000  25.0160000  -7.0200000
 -57.9590000  24.1630000  -5.8910000 -58.1300000  23.6940000  -4.9210000
 -58.5870000  25.0500000  -5.9720000 -58.2350000  23.4650000  -6.6810000
 -56.0790000  25.6180000  -4.9920000 -55.9730000  26.8000000  -5.3230000
 -55.8140000  25.2130000  -3.7430000 -55.9590000  24.2440000  -3.4980000
 -55.3360000  26.1320000  -2.7080000 -56.0440000  26.9580000  -2.6470000
 -55.3230000  25.4460000  -1.3350000 -56.3070000  25.0220000  -1.1360000
 -54.5960000  24.6350000  -1.3360000 -54.9830000  26.4180000  -0.2310000
 -53.7210000  26.8210000   0.1470000 -52.8460000  26.4450000  -0.1900000
 -53.8480000  27.8230000   1.0330000 -53.0230000  28.3420000   1.4970000
 -55.1460000  28.1080000   1.2370000 -55.8730000  27.2080000   0.4440000
 -56.9470000  27.1800000   0.3340000 -53.9700000  26.7490000  -3.0550000
 -53.7820000  27.9520000  -2.8730000 -53.0310000  25.9710000  -3.6070000
 -53.2240000  24.9870000  -3.7290000 -51.7340000  26.5040000  -4.0630000
 -51.3270000  27.1140000  -3.2560000 -50.7090000  25.3830000  -4.3260000
 -51.1160000  24.6790000  -5.0520000 -49.3880000  25.9430000  -4.8690000
 -49.0430000  26.7640000  -4.2410000 -48.6230000  25.1660000  -4.8760000
 -49.5230000  26.3030000  -5.8890000 -50.3880000  24.6290000  -3.0290000
 -51.2930000  24.1930000  -2.6070000 -49.6890000  23.8190000  -3.2380000
 -49.9440000  25.3040000  -2.2970000 -51.8900000  27.4420000  -5.2680000
 -51.2490000  28.4890000  -5.3030000 -52.7760000  27.1390000  -6.2220000
 -53.2430000  26.2450000  -6.1720000 -53.1500000  28.0650000  -7.3040000
 -52.2470000  28.3160000  -7.8600000 -54.1330000  27.3970000  -8.2800000
 -55.0260000  27.0910000  -7.7350000 -54.4390000  28.1400000  -9.0160000
 -53.5560000  26.1910000  -9.0430000 -52.3310000  26.1720000  -9.3220000
 -54.3490000  25.3120000  -9.4580000 -53.7070000  29.4040000  -6.7870000
 -53.2780000  30.4730000  -7.2340000 -54.6280000  29.3680000  -5.8190000
 -54.9790000  28.4690000  -5.5210000 -55.1170000  30.5630000  -5.1330000
 -55.5480000  31.2320000  -5.8770000 -56.2350000  30.1590000  -4.1650000
 -55.8500000  29.4930000  -3.3930000 -56.6460000  31.0530000  -3.6950000
 -57.0300000  29.6520000  -4.7110000 -53.9800000  31.3300000  -4.4310000
 -53.8120000  32.5270000  -4.6510000 -53.1490000  30.6430000  -3.6400000
 -53.3390000  29.6620000  -3.4970000 -51.9950000  31.2250000  -2.9440000
 -52.3680000  32.0010000  -2.2750000 -51.3510000  30.1250000  -2.0830000
 -52.1020000  29.7430000  -1.3920000 -51.0540000  29.3070000  -2.7400000
 -50.1120000  30.5580000  -1.2810000 -49.3260000  30.8720000  -1.9680000
 -50.4050000  31.6970000  -0.3050000 -51.2220000  31.4300000   0.3650000
 -49.5090000  31.9270000   0.2720000 -50.6750000  32.5960000  -0.8600000
 -49.6190000  29.3580000  -0.4770000 -49.3970000  28.5370000  -1.1580000
 -48.7060000  29.6150000   0.0600000 -50.3850000  29.0290000   0.2250000
 -51.0010000  31.9080000  -3.9020000 -50.6260000  33.0570000  -3.6680000
 -50.6380000  31.2530000  -5.0140000 -50.9650000  30.3030000  -5.1200000
 -49.8510000  31.8410000  -6.1160000 -48.8720000  32.1280000  -5.7340000
 -49.6530000  30.7800000  -7.2180000 -49.1300000  29.9260000  -6.7850000
 -50.6240000  30.4400000  -7.5750000 -48.8360000  31.3120000  -8.4100000
 -49.3890000  32.1080000  -8.9090000 -47.9050000  31.7340000  -8.0320000
 -48.4980000  30.2320000  -9.4500000 -47.8070000  30.6650000 -10.1730000
 -47.9860000  29.3980000  -8.9700000 -49.6960000  29.7700000 -10.1790000
 -50.0500000  30.3910000 -10.8930000 -50.3580000  28.6390000 -10.0190000
 -51.4060000  28.3750000 -10.7330000 -51.7220000  29.0000000 -11.4610000
 -51.8850000  27.5070000 -10.5400000 -50.0450000  27.7300000  -9.1460000
 -49.2340000  27.8300000  -8.5520000 -50.6660000  26.9370000  -9.0670000
 -50.5070000  33.1160000  -6.6560000 -49.8390000  34.1380000  -6.8060000
 -51.8160000  33.0660000  -6.9040000 -52.2830000  32.1850000  -6.7450000
 -52.6180000  34.2110000  -7.3720000 -52.1870000  34.5550000  -8.3120000
 -54.0740000  33.7980000  -7.6670000 -54.5660000  33.4780000  -6.7490000
 -54.8920000  34.9380000  -8.2730000 -54.3960000  35.3250000  -9.1630000
 -55.8830000  34.5730000  -8.5420000 -55.0100000  35.7420000  -7.5470000
 -54.1080000  32.7300000  -8.5940000 -53.8110000  31.9380000  -8.1400000
 -52.5540000  35.3990000  -6.3990000 -52.2880000  36.5220000  -6.8270000
 -52.7510000  35.1710000  -5.0930000 -53.0110000  34.2400000  -4.8010000
 -52.6170000  36.2080000  -4.0590000 -53.2650000  37.0420000  -4.3270000
 -53.0810000  35.6740000  -2.6930000 -52.3870000  34.8970000  -2.3720000
 -53.0260000  36.4840000  -1.9660000 -54.4790000  35.1020000  -2.6530000
 -55.6300000  35.6950000  -3.1250000 -55.7050000  36.6040000  -3.5590000
 -56.6580000  34.8600000  -2.8910000 -57.6860000  35.0650000  -3.1520000
 -56.2280000  33.7430000  -2.2760000 -54.8430000  33.8930000  -2.1240000
 -54.1740000  33.1850000  -1.6580000 -51.1850000  36.7700000  -3.9350000
 -51.0080000  37.9750000  -3.7530000 -50.1640000  35.9090000  -4.0310000
 -50.3840000  34.9270000  -4.1190000 -48.7460000  36.2710000  -3.9200000
 -48.6240000  36.8850000  -3.0280000 -47.9390000  34.9730000  -3.7210000
 -48.2480000  34.5140000  -2.7820000 -48.1920000  34.2870000  -4.5280000
 -46.4090000  35.1430000  -3.7120000 -46.0820000  35.5460000  -4.6710000
 -45.9220000  36.0630000  -2.5930000 -46.1860000  35.6460000  -1.6210000
 -44.8400000  36.1720000  -2.6670000 -46.3630000  37.0550000  -2.6900000
 -45.7520000  33.7750000  -3.5290000 -46.1090000  33.0890000  -4.2980000
 -44.6700000  33.8700000  -3.6210000 -46.0000000  33.3690000  -2.5490000
 -48.2150000  37.1100000  -5.0960000 -47.4060000  38.0120000  -4.8790000
 -48.6540000  36.8360000  -6.3280000 -49.2900000  36.0590000  -6.4410000
 -48.1520000  37.4800000  -7.5460000 -47.1390000  37.1090000  -7.7040000
 -48.9890000  36.9990000  -8.7380000 -50.0390000  37.2600000  -8.6050000
 -48.6190000  37.4580000  -9.6550000 -48.9050000  35.9160000  -8.8320000
 -48.0310000  39.0280000  -7.4760000 -46.9330000  39.5350000  -7.7350000
 -49.0720000  39.8030000  -7.0930000 -50.4480000  39.3950000  -6.8350000
 -50.5110000  38.5100000  -6.2020000 -50.9540000  39.2130000  -7.7830000
 -51.1070000  40.5780000  -6.1310000 -50.8960000  40.5400000  -5.0630000
 -52.1820000  40.6080000  -6.3120000 -50.3900000  41.7700000  -6.7590000
 -50.4270000  42.6490000  -6.1150000 -50.8400000  41.9930000  -7.7270000
 -48.9610000  41.2580000  -6.9680000 -48.5790000  41.6730000  -7.9010000
 -48.0270000  41.7120000  -5.8330000 -47.3360000  42.7160000  -5.9930000
 -47.9680000  40.9970000  -4.7020000 -48.5340000  40.1640000  -4.6210000
 -47.0500000  41.3210000  -3.5990000 -47.1690000  42.3730000  -3.3380000
 -47.3800000  40.4830000  -2.3540000 -47.1890000  39.4360000  -2.5910000
 -46.6760000  40.7620000  -1.5700000 -48.7830000  40.5800000  -1.7670000
 -49.6800000  41.6170000  -2.1080000 -49.3920000  42.3920000  -2.8030000
 -50.9660000  41.6590000  -1.5340000 -51.6490000  42.4520000  -1.8000000
 -51.3580000  40.6690000  -0.6070000 -52.5990000  40.7070000  -0.0490000
 -53.1090000  41.4530000  -0.3720000 -50.4580000  39.6420000  -0.2520000
 -50.7570000  38.8930000   0.4660000 -49.1760000  39.6050000  -0.8300000
 -48.4810000  38.8290000  -0.5450000 -45.5770000  41.1160000  -3.9920000
 -44.7240000  41.9530000  -3.6840000 -45.2790000  40.0230000  -4.7050000
 -46.0200000  39.3630000  -4.8920000 -43.9610000  39.7660000  -5.2860000
 -43.2290000  39.7960000  -4.4780000 -43.9520000  38.3520000  -5.8940000
 -44.1250000  37.6290000  -5.0970000 -44.7760000  38.2720000  -6.6020000
 -42.6510000  37.9820000  -6.6330000 -42.4980000  38.6700000  -7.4640000
 -41.4220000  38.0230000  -5.7240000 -41.5540000  37.3470000  -4.8800000
 -40.5410000  37.7260000  -6.2940000 -41.2570000  39.0360000  -5.3550000
 -42.7720000  36.5680000  -7.2010000 -43.6220000  36.5160000  -7.8820000
 -41.8670000  36.3150000  -7.7530000 -42.9130000  35.8490000  -6.3940000
 -43.5630000  40.8560000  -6.2990000 -42.4570000  41.3920000  -6.2220000
 -44.4630000  41.2070000  -7.2240000 -45.3400000  40.7070000  -7.2520000
 -44.2650000  42.2990000  -8.1850000 -43.3900000  42.0620000  -8.7920000
 -45.4820000  42.3820000  -9.1160000 -45.6390000  41.4080000  -9.5800000
 -46.3670000  42.6180000  -8.5250000 -45.3140000  43.4290000 -10.2300000
 -44.2200000  43.5190000 -10.8360000 -46.3010000  44.1400000 -10.5380000
 -43.9990000  43.6590000  -7.5020000 -43.0420000  44.3550000  -7.8470000
 -44.8200000  44.0260000  -6.5120000 -45.6000000  43.4220000  -6.2980000
 -44.6430000  45.2100000  -5.6640000 -44.7640000  46.1000000  -6.2820000
 -45.7400000  45.2270000  -4.5880000 -46.7100000  45.3040000  -5.0790000
 -45.7180000  44.2840000  -4.0410000 -45.6080000  46.3860000  -3.5860000
 -45.2800000  47.5240000  -4.0000000 -45.8760000  46.1650000  -2.3810000
 -43.2380000  45.2760000  -5.0340000 -42.5140000  46.2540000  -5.2400000
 -42.8200000  44.2240000  -4.3170000 -43.4480000  43.4420000  -4.1930000
 -41.4690000  44.1210000  -3.7570000 -41.3050000  44.9500000  -3.0700000
 -41.3050000  42.8080000  -2.9750000 -41.7420000  41.9920000  -3.5510000
 -40.2360000  42.6090000  -2.9050000 -41.8530000  42.7530000  -1.5540000
 -41.4860000  41.6630000  -0.7400000 -40.8560000  40.8820000  -1.1400000
 -41.9190000  41.5890000   0.5960000 -41.6250000  40.7530000   1.2140000
 -42.7240000  42.6090000   1.1300000 -43.0540000  42.5580000   2.1570000
 -43.1010000  43.6960000   0.3240000 -43.7260000  44.4780000   0.7310000
 -42.6740000  43.7680000  -1.0130000 -42.9820000  44.6130000  -1.6100000
 -40.3800000  44.2470000  -4.8350000 -39.4690000  45.0600000  -4.6820000
 -40.4800000  43.5030000  -5.9410000 -41.2550000  42.8600000  -6.0200000
 -39.5210000  43.5660000  -7.0460000 -38.5480000  43.2740000  -6.6510000
 -39.9170000  42.5380000  -8.1170000 -40.0150000  41.5640000  -7.6380000
 -40.8800000  42.8110000  -8.5480000 -38.8750000  42.4220000  -9.2390000
 -38.8460000  43.3470000  -9.8150000 -37.8940000  42.2680000  -8.7890000
 -39.1570000  41.2610000 -10.1970000 -40.2660000  40.7560000 -10.3270000
 -38.1610000  40.7880000 -10.9180000 -38.3520000  40.0240000 -11.5500000
 -37.2320000  41.1750000 -10.8300000 -39.3610000  44.9890000  -7.6150000
 -38.2350000  45.4670000  -7.7770000 -40.4710000  45.6950000  -7.8720000
 -41.3600000  45.2390000  -7.7260000 -40.4780000  47.0980000  -8.3170000
 -39.8640000  47.1760000  -9.2150000 -41.9170000  47.4990000  -8.6830000
 -42.3100000  46.7730000  -9.3960000 -42.5430000  47.4760000  -7.7910000
 -41.9890000  48.8950000  -9.3200000 -41.6620000  49.6440000  -8.5980000
 -41.3300000  48.9280000 -10.1870000 -43.4200000  49.2240000  -9.7640000
 -43.7520000  48.4810000 -10.4880000 -44.0820000  49.1990000  -8.8980000
 -43.4630000  50.6170000 -10.4030000 -43.1170000  51.3490000  -9.6730000
 -42.7730000  50.6360000 -11.2470000 -44.8330000  50.9680000 -10.8630000
 -45.4890000  50.9730000 -10.0950000 -44.8490000  51.8860000 -11.2820000
 -45.1680000  50.3130000 -11.5550000 -39.8620000  48.0430000  -7.2760000
 -39.0380000  48.8890000  -7.6280000 -40.2100000  47.8760000  -5.9960000
 -40.9030000  47.1700000  -5.7930000 -39.6640000  48.6510000  -4.8680000
 -39.8700000  49.7070000  -5.0430000 -40.3950000  48.2180000  -3.5830000
 -41.4700000  48.2100000  -3.7650000 -40.0840000  47.2090000  -3.3130000
 -40.1270000  49.1630000  -2.4070000 -39.0500000  49.2890000  -2.3010000
 -40.5780000  50.1330000  -2.6170000 -40.6900000  48.5910000  -1.0970000
 -41.7680000  48.4530000  -1.1810000 -40.2360000  47.6150000  -0.9250000
 -40.3650000  49.4810000   0.1120000 -40.5340000  48.8970000   1.0170000
 -39.3060000  49.7390000   0.0890000 -41.2010000  50.7140000   0.1610000
 -42.1830000  50.4850000   0.2100000 -40.9920000  51.2530000   0.9890000
 -41.0500000  51.3090000  -0.6410000 -38.1370000  48.5010000  -4.7590000
 -37.4220000  49.5020000  -4.6710000 -37.6300000  47.2690000  -4.8430000
 -38.2770000  46.4940000  -4.8650000 -36.1970000  46.9630000  -4.9170000
 -35.7020000  47.3830000  -4.0410000 -35.9900000  45.4420000  -4.9050000
 -36.4760000  45.0180000  -5.7840000 -34.9220000  45.2450000  -5.0050000
 -36.4820000  44.6910000  -3.7000000 -36.6340000  45.1870000  -2.4480000
 -36.4230000  46.2030000  -2.1490000 -37.1220000  44.2010000  -1.6140000
 -37.3320000  44.3520000  -0.6380000 -37.3090000  43.0120000  -2.2830000
 -37.7910000  41.7570000  -1.8840000 -38.0970000  41.5870000  -0.8630000
 -37.8830000  40.7300000  -2.8370000 -38.2570000  39.7590000  -2.5460000
 -37.4820000  40.9640000  -4.1650000 -37.5480000  40.1670000  -4.8900000
 -36.9810000  42.2240000  -4.5490000 -36.6650000  42.3890000  -5.5680000
 -36.8930000  43.2880000  -3.6210000 -35.5240000  47.5840000  -6.1490000
 -34.4460000  48.1610000  -6.0210000 -36.1470000  47.5050000  -7.3310000
 -37.0000000  46.9670000  -7.3880000 -35.6330000  48.1100000  -8.5660000
 -34.6390000  47.7030000  -8.7480000 -36.5220000  47.6930000  -9.7500000
 -36.6080000  46.6070000  -9.7520000 -37.5190000  48.1190000  -9.6310000
 -35.9440000  48.1390000 -11.1030000 -35.9580000  49.2270000 -11.1670000
 -34.9080000  47.8090000 -11.1690000 -36.7050000  47.5750000 -12.3060000
 -37.7910000  47.0160000 -12.2130000 -36.1630000  47.7100000 -13.4990000
 -36.6630000  47.3460000 -14.2980000 -35.2710000  48.1720000 -13.6080000
 -35.4600000  49.6350000  -8.4560000 -34.4000000  50.1670000  -8.7930000
 -36.4800000  50.3360000  -7.9510000 -37.3320000  49.8420000  -7.7270000
 -36.4160000  51.7690000  -7.6430000 -36.2150000  52.3090000  -8.5680000
 -37.7830000  52.2380000  -7.1190000 -38.5280000  52.0270000  -7.8860000
 -38.0430000  51.6750000  -6.2220000 -37.8070000  53.7370000  -6.7870000
 -37.1100000  53.9300000  -5.9720000 -37.4660000  54.2950000  -7.6590000
 -39.2120000  54.2350000  -6.3910000 -40.2150000  53.8870000  -7.0620000
 -39.3230000  55.0130000  -5.4100000 -35.2680000  52.1100000  -6.6720000
 -34.4780000  53.0180000  -6.9380000 -35.1430000  51.3780000  -5.5600000
 -35.8220000  50.6550000  -5.3700000 -34.0560000  51.5930000  -4.5990000
 -34.0740000  52.6470000  -4.3210000 -34.2970000  50.7820000  -3.3220000
 -35.3310000  50.9210000  -3.0050000 -34.1420000  49.7240000  -3.5350000
 -33.3560000  51.2090000  -2.1870000 -33.4630000  50.5030000  -1.3630000
 -32.3260000  51.1360000  -2.5350000 -33.6540000  52.6360000  -1.6720000
 -34.8070000  52.8970000  -1.2450000 -32.7460000  53.5000000  -1.6690000
 -32.6590000  51.3050000  -5.1830000 -31.7210000  52.0550000  -4.9240000
 -32.5060000  50.2490000  -5.9890000 -33.3050000  49.6520000  -6.1510000
 -31.2380000  49.8930000  -6.6340000 -30.5000000  49.7380000  -5.8480000
 -31.4090000  48.5590000  -7.3780000 -31.7490000  47.8160000  -6.6560000
 -32.1730000  48.6580000  -8.1490000 -30.1200000  48.0250000  -8.0130000
 -29.2870000  48.1890000  -7.3300000 -30.2380000  46.9480000  -8.1330000
 -29.7030000  48.7010000  -9.6430000 -28.2870000  47.6360000 -10.0250000
 -27.5170000  47.7590000  -9.2630000 -28.6070000  46.5940000 -10.0470000
 -27.8770000  47.9050000 -10.9980000 -30.7040000  51.0260000  -7.5330000
 -29.5240000  51.3790000  -7.4490000 -31.5770000  51.6560000  -8.3290000
 -32.5280000  51.3160000  -8.3530000 -31.2790000  52.9260000  -9.0070000
 -30.4180000  52.7750000  -9.6580000 -32.4740000  53.3310000  -9.8940000
 -32.5190000  52.6500000 -10.7440000 -33.3960000  53.1980000  -9.3280000
 -32.4660000  54.7800000 -10.4130000 -33.3230000  54.9060000 -11.0740000
 -32.6170000  55.4490000  -9.5660000 -31.1910000  55.1960000 -11.1780000
 -30.5330000  54.3370000 -11.8130000 -30.8750000  56.4120000 -11.1850000
 -30.8930000  54.0370000  -8.0090000 -29.8450000  54.6680000  -8.1560000
 -31.7210000  54.2700000  -6.9850000 -32.5500000  53.6980000  -6.9120000
 -31.5610000  55.3510000  -6.0050000 -31.4980000  56.2820000  -6.5680000
 -32.8360000  55.4020000  -5.1400000 -33.7010000  55.4630000  -5.8000000
 -32.9030000  54.4690000  -4.5810000 -32.9160000  56.5560000  -4.1280000
 -32.1070000  56.4580000  -3.4050000 -32.8260000  57.9290000  -4.8010000
 -33.5880000  58.0100000  -5.5760000 -32.9890000  58.7170000  -4.0660000
 -31.8440000  58.0710000  -5.2510000 -34.2430000  56.4950000  -3.3720000
 -34.3320000  55.5330000  -2.8680000 -34.2780000  57.2840000  -2.6210000
 -35.0770000  56.6160000  -4.0630000 -30.2700000  55.2610000  -5.1630000
 -29.7300000  56.2990000  -4.7680000 -29.7410000  54.0610000  -4.9020000
 -30.2880000  53.2460000  -5.1420000 -28.3860000  53.8600000  -4.3740000
 -28.2930000  54.3900000  -3.4260000 -28.0980000  52.3630000  -4.1340000
 -28.2320000  51.8350000  -5.0780000 -27.0460000  52.2620000  -3.8640000
 -28.8960000  51.6250000  -3.0670000 -29.1360000  50.2450000  -3.2380000
 -28.7820000  49.7440000  -4.1260000 -29.8290000  49.5120000  -2.2560000
 -30.0200000  48.4600000  -2.4070000 -30.2730000  50.1560000  -1.0810000
 -30.9740000  49.4630000  -0.1430000 -31.1250000  48.5540000  -0.4100000
 -30.0130000  51.5300000  -0.8940000 -30.3660000  52.0240000  -0.0010000
 -29.3290000  52.2610000  -1.8840000 -29.1490000  53.3140000  -1.7240000
 -27.3300000  54.4590000  -5.3130000 -26.6480000  55.4160000  -4.9440000
 -27.2200000  53.9480000  -6.5480000 -27.8550000  53.2090000  -6.8140000
 -26.1880000  54.3670000  -7.5130000 -25.2160000  54.2420000  -7.0360000
 -26.2240000  53.4390000  -8.7430000 -26.1930000  52.4050000  -8.4000000
 -27.1500000  53.5940000  -9.2970000 -25.0190000  53.6880000  -9.6620000
 -25.1130000  54.6710000 -10.1230000 -24.1060000  53.6660000  -9.0670000
 -24.8970000  52.6410000 -10.7730000 -24.7660000  51.6550000 -10.3280000
 -25.8130000  52.6440000 -11.3640000 -23.7420000  52.9570000 -11.6330000
 -23.0750000  53.6340000 -11.2920000 -23.4770000  52.4900000 -12.8350000
 -22.4820000  53.0000000 -13.4970000 -22.0450000  53.8260000 -13.1140000
 -22.2690000  52.6940000 -14.4360000 -24.1810000  51.5460000 -13.3910000
 -24.9380000  51.1290000 -12.8680000 -23.9780000  51.2310000 -14.3290000
 -26.2970000  55.8500000  -7.8780000 -25.2760000  56.5230000  -7.9720000
 -27.5160000  56.3750000  -7.9840000 -28.2950000  55.7340000  -7.9390000
 -27.8090000  57.7970000  -8.1950000 -27.4120000  58.0800000  -9.1700000
 -29.3360000  57.9670000  -8.2410000 -29.7330000  57.2230000  -8.9320000
 -29.7560000  57.7760000  -7.2530000 -29.7830000  59.3550000  -8.7180000
 -29.4710000  60.1090000  -7.9950000 -29.3040000  59.5710000  -9.6730000
 -31.2980000  59.4500000  -8.9160000 -31.9670000  60.3100000  -8.3550000
 -31.9110000  58.5820000  -9.6940000 -32.9080000  58.6730000  -9.8290000
 -31.3920000  57.8600000 -10.1740000 -27.1460000  58.7150000  -7.1460000
 -26.5440000  59.7280000  -7.5070000 -27.2250000  58.3520000  -5.8540000
 -27.7410000  57.5130000  -5.6310000 -26.5630000  59.0800000  -4.7510000
 -26.7010000  60.1480000  -4.9150000 -27.2410000  58.6880000  -3.4240000
 -28.3210000  58.7430000  -3.5610000 -26.9870000  57.6540000  -3.1920000
 -26.8690000  59.5620000  -2.2100000 -27.2900000  59.0930000  -1.3210000
 -25.7850000  59.5910000  -2.0930000 -27.4270000  60.9920000  -2.3170000
 -26.9310000  61.5320000  -3.1230000 -28.4890000  60.9310000  -2.5550000
 -27.2910000  61.7850000  -1.0060000 -27.9200000  62.6720000  -1.0820000
 -27.6780000  61.1820000  -0.1850000 -25.8890000  62.2040000  -0.7260000
 -25.5280000  62.7870000  -1.4680000 -25.8430000  62.7460000   0.1240000
 -25.2730000  61.4110000  -0.6130000 -25.0480000  58.8310000  -4.6980000
 -24.2790000  59.7590000  -4.4500000 -24.6270000  57.5860000  -4.9380000
 -25.3370000  56.8850000  -5.0940000 -23.2230000  57.1420000  -4.8330000
 -22.8100000  57.5290000  -3.9020000 -23.1360000  55.5990000  -4.7730000
 -23.7400000  55.1790000  -5.5770000 -21.7070000  55.0610000  -4.9210000
 -21.0560000  55.5310000  -4.1840000 -21.6970000  53.9810000  -4.7710000
 -21.3260000  55.2630000  -5.9220000 -23.6690000  55.0770000  -3.4380000
 -24.6830000  55.4390000  -3.2670000 -23.6900000  53.9870000  -3.4520000
 -23.0290000  55.4110000  -2.6210000 -22.3390000  57.6970000  -5.9490000
 -21.2950000  58.2750000  -5.6640000 -22.7040000  57.4760000  -7.2140000
 -23.6200000  57.0870000  -7.3890000 -21.7950000  57.5880000  -8.3620000
 -21.0040000  56.8570000  -8.1930000 -22.5030000  57.1360000  -9.6520000
 -22.9060000  56.1410000  -9.4620000 -23.3470000  57.7890000  -9.8740000
 -21.5670000  57.0740000 -10.8740000 -21.7340000  57.9420000 -11.5110000
 -20.5330000  57.1180000 -10.5310000 -21.7260000  55.7630000 -11.6630000
 -21.9720000  55.7830000 -12.8900000 -21.5620000  54.6720000 -11.0640000
 -21.0580000  58.9390000  -8.4850000 -19.8370000  58.9050000  -8.6450000
 -21.7090000  60.1150000  -8.3520000 -23.1470000  60.3390000  -8.2570000
 -23.4580000  60.2680000  -7.2150000 -23.7220000  59.6410000  -8.8660000
 -23.3620000  61.7610000  -8.7640000 -24.2640000  62.2080000  -8.3470000
 -23.3990000  61.7620000  -9.8540000 -22.0990000  62.4750000  -8.2880000
 -22.2330000  62.7780000  -7.2490000 -21.8690000  63.3410000  -8.9080000
 -21.0090000  61.4010000  -8.4000000 -20.5270000  61.4920000  -9.3730000
 -19.9440000  61.5550000  -7.3010000 -18.8120000  61.9560000  -7.5770000
 -20.2900000  61.2130000  -6.0530000 -21.2140000  60.8310000  -5.9060000
 -19.3840000  61.2960000  -4.8980000 -18.9110000  62.2780000  -4.8970000
 -20.1900000  61.1340000  -3.5950000 -20.6930000  60.1670000  -3.6160000
 -19.4950000  61.1280000  -2.7560000 -21.2410000  62.2340000  -3.3510000
 -21.9170000  62.2980000  -4.2030000 -22.0660000  61.8860000  -2.1140000
 -21.4140000  61.7770000  -1.2470000 -22.7930000  62.6750000  -1.9230000
 -22.6000000  60.9520000  -2.2890000 -20.6000000  63.6040000  -3.1250000
 -20.0810000  63.9300000  -4.0260000 -21.3720000  64.3390000  -2.8950000
 -19.8920000  63.5550000  -2.2970000 -18.2460000  60.2680000  -4.9780000
 -17.0960000  60.5870000  -4.6720000 -18.5500000  59.0510000  -5.4400000
 -19.5240000  58.8610000  -5.6320000 -17.5700000  57.9880000  -5.6970000
 -16.9930000  57.8220000  -4.7870000 -18.3250000  56.6980000  -6.0490000
 -19.1810000  56.5890000  -5.3830000 -18.6980000  56.7740000  -7.0700000
 -17.4470000  55.4490000  -5.8870000 -16.4420000  55.6330000  -6.2650000
 -17.3790000  55.2100000  -4.8250000 -18.0560000  54.2590000  -6.6380000
 -17.5480000  53.3470000  -6.3230000 -19.1030000  54.1640000  -6.3510000
 -17.8990000  54.4300000  -8.1010000 -16.9750000  54.6940000  -8.4140000
 -18.8400000  54.3710000  -9.0300000 -18.5780000  54.6240000 -10.2770000
 -17.6400000  54.8500000 -10.5760000 -19.3380000  54.6010000 -10.9420000
 -20.0820000  54.0790000  -8.7690000 -20.3510000  53.7960000  -7.8380000
 -20.7530000  54.0930000  -9.5240000 -16.5800000  58.3880000  -6.7960000
 -15.3740000  58.2630000  -6.6060000 -17.0720000  58.9310000  -7.9110000
 -18.0750000  58.9880000  -8.0150000 -16.2440000  59.4880000  -8.9800000
 -15.6020000  58.6940000  -9.3620000 -17.1450000  59.9570000 -10.1270000
 -17.8150000  60.7450000  -9.7860000 -16.5290000  60.3420000 -10.9400000
 -17.7350000  59.1200000 -10.5000000 -15.3270000  60.6140000  -8.4690000
 -14.1270000  60.5830000  -8.7230000 -15.8570000  61.5730000  -7.7020000
 -16.8570000  61.5790000  -7.5630000 -15.0630000  62.6240000  -7.0480000
 -14.5700000  63.2050000  -7.8280000 -15.9990000  63.5790000  -6.2880000
 -16.7190000  63.9820000  -7.0000000 -16.5420000  63.0270000  -5.5210000
 -15.2470000  64.7390000  -5.6190000 -14.5790000  64.3360000  -4.8580000
 -14.6380000  65.2410000  -6.3700000 -16.2000000  65.7680000  -4.9770000
 -17.1940000  66.1880000  -5.6180000 -15.9400000  66.1940000  -3.8240000
 -13.9420000  62.0550000  -6.1510000 -12.7960000  62.5070000  -6.2290000
 -14.2510000  61.0430000  -5.3290000 -15.2160000  60.7500000  -5.2780000
 -13.2690000  60.3170000  -4.5180000 -12.7900000  61.0430000  -3.8600000
 -14.0080000  59.2790000  -3.6470000 -14.8640000  59.7540000  -3.1680000
 -14.3910000  58.4930000  -4.2980000 -13.1370000  58.6220000  -2.5610000
 -12.1940000  58.2840000  -2.9890000 -12.8570000  59.6000000  -1.4200000
 -13.7970000  59.9940000  -1.0330000 -12.3300000  59.0940000  -0.6110000
 -12.2360000  60.4220000  -1.7770000 -13.8590000  57.4080000  -1.9770000
 -14.0600000  56.6840000  -2.7670000 -13.2260000  56.9330000  -1.2270000
 -14.8000000  57.7130000  -1.5190000 -12.1590000  59.6760000  -5.3770000
 -10.9770000  59.8510000  -5.0800000 -12.5270000  58.9720000  -6.4550000
 -13.5170000  58.8630000  -6.6260000 -11.5910000  58.3760000  -7.4220000
 -10.9270000  57.7020000  -6.8820000 -12.3570000  57.5440000  -8.4690000
 -13.1180000  58.1710000  -8.9330000 -11.6570000  57.2400000  -9.2480000
 -13.0310000  56.2770000  -7.9060000 -12.2590000  55.5580000  -7.6320000
 -13.5990000  56.5150000  -7.0060000 -13.9720000  55.6290000  -8.9250000
 -15.1810000  55.5270000  -8.7450000 -13.4610000  55.1880000 -10.0570000
 -14.0850000  54.7810000 -10.7390000 -12.4690000  55.2570000 -10.2350000
 -10.6940000  59.4260000  -8.1120000  -9.4790000  59.2430000  -8.1880000
 -11.2700000  60.5340000  -8.5950000 -12.2740000  60.6080000  -8.5260000
 -10.5410000  61.6740000  -9.1780000 -10.0080000  61.3360000 -10.0670000
 -11.5200000  62.7910000  -9.5940000 -12.1390000  63.0430000  -8.7330000
 -10.9540000  63.6850000  -9.8560000 -12.4540000  62.4460000 -10.7660000
 -12.7320000  61.3930000 -10.7300000 -13.3660000  63.0330000 -10.6530000
 -11.8210000  62.7510000 -12.1350000 -10.7520000  62.1760000 -12.4500000
 -12.3950000  63.5520000 -12.9130000  -9.4820000  62.2380000  -8.2150000
  -8.3070000  62.3450000  -8.5770000  -9.8800000  62.5550000  -6.9760000
 -10.8590000  62.4510000  -6.7490000  -8.9750000  63.0340000  -5.9250000
  -8.5180000  63.9710000  -6.2430000  -9.5470000  63.2230000  -5.0170000
  -7.8610000  62.0370000  -5.5910000  -6.6890000  62.4110000  -5.5220000
  -8.2070000  60.7530000  -5.4430000  -9.1860000  60.5110000  -5.4840000
  -7.2490000  59.6740000  -5.2000000  -6.7210000  59.8990000  -4.2740000
  -8.0170000  58.3600000  -4.9950000  -8.5850000  58.1060000  -5.8900000
  -7.3150000  57.5540000  -4.7810000  -8.7030000  58.4610000  -4.1540000
  -6.1870000  59.5620000  -6.3090000  -4.9970000  59.4830000  -6.0000000
  -6.5890000  59.6050000  -7.5880000  -7.5830000  59.6390000  -7.7670000
  -5.6690000  59.5720000  -8.7430000  -4.9960000  58.7240000  -8.6130000
  -6.4730000  59.3480000 -10.0360000  -7.1820000  58.5350000  -9.8800000
  -7.0320000  60.2540000 -10.2700000  -5.5550000  58.9690000 -11.2130000
  -4.7830000  59.7290000 -11.3440000  -5.0660000  58.0230000 -10.9820000
  -6.3080000  58.8170000 -12.5410000  -5.6310000  58.3630000 -13.2640000
  -7.1510000  58.1380000 -12.4120000  -6.7410000  60.1270000 -13.0690000
  -6.0420000  60.6690000 -13.5560000  -7.9350000  60.6810000 -12.9660000
  -8.1680000  61.8770000 -13.4070000  -7.4490000  62.4270000 -13.8560000
  -9.0920000  62.2500000 -13.2420000  -8.9520000  60.0970000 -12.4090000
  -8.8850000  59.1500000 -12.0650000  -9.8100000  60.6290000 -12.3670000
  -4.7870000  60.8210000  -8.8330000  -3.5870000  60.7010000  -9.0730000
  -5.3440000  62.0080000  -8.5920000  -6.3440000  62.0440000  -8.4510000
  -4.5800000  63.2620000  -8.5230000  -4.0920000  63.4150000  -9.4860000
  -5.5520000  64.4340000  -8.3010000  -6.2720000  64.4400000  -9.1190000
  -6.0940000  64.2880000  -7.3660000  -4.8420000  65.7980000  -8.2590000
  -4.1870000  65.8450000  -7.3890000  -4.2270000  65.9020000  -9.1530000
  -5.8010000  66.9890000  -8.1970000  -7.0130000  66.8720000  -8.0530000
  -5.2900000  68.1990000  -8.2970000  -5.9150000  68.9910000  -8.2550000
  -4.2950000  68.3240000  -8.4160000  -3.4700000  63.1950000  -7.4560000
  -2.3120000  63.5060000  -7.7360000  -3.8070000  62.7260000  -6.2460000
  -4.7840000  62.5340000  -6.0730000  -2.8590000  62.5690000  -5.1280000
  -2.2860000  63.4930000  -5.0590000  -3.6750000  62.4020000  -3.8310000
  -4.4930000  63.1230000  -3.8320000  -4.1190000  61.4070000  -3.8130000
  -2.8760000  62.6140000  -2.5350000  -3.5470000  62.4140000  -1.7000000
  -2.0490000  61.9040000  -2.4970000  -2.3180000  64.0370000  -2.3890000
  -1.5050000  64.1820000  -3.1010000  -3.1070000  64.7590000  -2.5940000
  -1.7870000  64.2630000  -0.9670000  -2.6220000  64.2090000  -0.2690000
  -1.0830000  63.4680000  -0.7210000  -1.1120000  65.5800000  -0.8580000
  -1.7300000  66.3400000  -1.1020000  -0.7670000  65.7430000   0.0770000
  -0.3140000  65.6140000  -1.4760000  -1.8340000  61.4440000  -5.3480000
  -0.6780000  61.5860000  -4.9580000  -2.2210000  60.3600000  -6.0290000
  -3.2000000  60.2850000  -6.2680000  -1.3260000  59.2580000  -6.4290000
  -0.9030000  58.8210000  -5.5240000  -2.1570000  58.1730000  -7.1480000
  -2.9120000  57.7940000  -6.4590000  -2.6770000  58.6420000  -7.9830000
  -1.3630000  56.9810000  -7.7190000  -0.6070000  57.3410000  -8.4180000
  -0.6800000  56.1640000  -6.6230000  -1.4120000  55.8120000  -5.8970000
  -0.1860000  55.3050000  -7.0760000   0.0780000  56.7670000  -6.1230000
  -2.3070000  56.0540000  -8.4850000  -2.7970000  56.6070000  -9.2860000
  -1.7370000  55.2380000  -8.9280000  -3.0620000  55.6440000  -7.8150000
  -0.1460000  59.7420000  -7.2910000   0.9830000  59.3070000  -7.0750000
  -0.3800000  60.6690000  -8.2260000  -1.3290000  60.9860000  -8.3690000
   0.6970000  61.2670000  -9.0280000   1.2540000  60.4590000  -9.5020000
   0.1210000  62.1420000 -10.1510000  -0.6050000  62.8430000  -9.7400000
   0.9330000  62.7260000 -10.5830000  -0.5190000  61.3490000 -11.2660000
  -1.7280000  60.6900000 -11.2300000  -2.3880000  60.6900000 -10.4650000
  -1.8920000  60.0460000 -12.3980000  -2.7520000  59.4460000 -12.6550000
  -0.8310000  60.2500000 -13.1990000   0.0500000  61.0710000 -12.4810000
   1.0190000  61.4130000 -12.8130000   1.7120000  62.0510000  -8.1740000
   2.9170000  61.9450000  -8.4060000   1.2620000  62.7920000  -7.1550000
   0.2650000  62.8630000  -7.0050000   2.1660000  63.4620000  -6.2080000
   2.8990000  64.0190000  -6.7910000   1.3940000  64.4850000  -5.3600000
   0.7770000  65.0900000  -6.0250000   0.7290000  63.9540000  -4.6780000
   2.3240000  65.4350000  -4.5790000   3.3610000  65.2710000  -4.8720000
   2.0800000  66.4580000  -4.8670000   2.1800000  65.3190000  -3.0510000
   3.2050000  65.1300000  -2.3520000   1.0480000  65.4780000  -2.5350000
   2.9540000  62.4610000  -5.3420000   4.1600000  62.6220000  -5.1580000
   2.3130000  61.3830000  -4.8690000   1.3160000  61.3160000  -5.0160000
   3.0030000  60.2800000  -4.1870000   3.5210000  60.7040000  -3.3270000
   1.9660000  59.2670000  -3.6640000   1.3150000  59.7770000  -2.9540000
   1.3510000  58.9310000  -4.4990000   2.5630000  58.0190000  -2.9830000
   3.1480000  57.4520000  -3.7070000   3.4500000  58.3760000  -1.7900000
   2.9030000  59.0110000  -1.0940000   3.7680000  57.4660000  -1.2810000
   4.3430000  58.9010000  -2.1290000   1.4300000  57.1250000  -2.4760000
   0.7940000  56.8270000  -3.3100000   1.8470000  56.2270000  -2.0210000
   0.8350000  57.6580000  -1.7340000   4.0830000  59.6340000  -5.0790000
   5.2130000  59.4430000  -4.6330000   3.7740000  59.3460000  -6.3470000
   2.8230000  59.4970000  -6.6510000   4.7500000  58.8620000  -7.3320000
   5.1700000  57.9290000  -6.9560000   4.0310000  58.5400000  -8.6530000
   3.2150000  57.8480000  -8.4410000   3.6110000  59.4540000  -9.0720000
   4.9660000  57.8930000  -9.6900000   5.7420000  58.6020000  -9.9760000
   5.4480000  57.0260000  -9.2380000   4.2450000  57.4350000 -10.9610000
   3.0750000  57.7060000 -11.2050000   4.9250000  56.7250000 -11.8380000
   4.4540000  56.4270000 -12.6800000   5.8930000  56.4900000 -11.6690000
   5.9290000  59.8390000  -7.5140000   7.0880000  59.4220000  -7.5040000
   5.6510000  61.1430000  -7.6150000   4.6820000  61.4230000  -7.6490000
   6.6710000  62.1980000  -7.6810000   7.3210000  61.9840000  -8.5300000
   5.9890000  63.5500000  -7.9570000   5.4050000  63.4520000  -8.8720000
   5.3100000  63.7920000  -7.1390000   6.9840000  64.7080000  -8.1180000
   7.5390000  64.8280000  -7.1880000   7.6930000  64.4540000  -8.9060000
   6.2950000  66.0430000  -8.4690000   5.3220000  66.0630000  -9.2640000
   6.7440000  67.1030000  -7.9660000   7.5770000  62.2380000  -6.4310000
   8.7830000  62.4510000  -6.5600000   7.0290000  61.9940000  -5.2300000
   6.0250000  61.8920000  -5.1890000   7.8000000  61.8500000  -3.9790000
   8.5210000  62.6650000  -3.9200000   6.8500000  61.9420000  -2.7660000
   6.0300000  61.2370000  -2.9040000   7.3870000  61.6450000  -1.8650000
   6.2560000  63.3440000  -2.5360000   5.9240000  63.7660000  -3.4850000
   5.3870000  63.2360000  -1.8870000   7.2520000  64.3060000  -1.8680000
   7.4650000  63.9570000  -0.8570000   8.1880000  64.3050000  -2.4260000
   6.7420000  65.7550000  -1.8150000   7.5280000  66.3730000  -1.3800000
   6.5760000  66.1070000  -2.8330000   5.4940000  65.9040000  -1.0190000
   5.5830000  65.5010000  -0.0980000   5.2560000  66.8800000  -0.9080000
   4.7090000  65.4750000  -1.4880000   8.6320000  60.5570000  -3.9180000
   9.7420000  60.5780000  -3.3850000   8.1150000  59.4380000  -4.4380000
   7.1760000  59.4910000  -4.8050000   8.7940000  58.1310000  -4.4480000
   9.1100000  57.9030000  -3.4300000   7.8130000  57.0320000  -4.9090000
   7.2980000  57.3790000  -5.8060000   8.3880000  56.1490000  -5.1880000
   6.7720000  56.6090000  -3.8560000   6.3820000  57.4900000  -3.3450000
   5.6040000  55.8750000  -4.5140000   5.9680000  55.0120000  -5.0720000
   4.9010000  55.5420000  -3.7500000   5.0810000  56.5490000  -5.1940000
   7.3830000  55.6630000  -2.8200000   8.2710000  56.1140000  -2.3780000
   6.6570000  55.4630000  -2.0320000   7.6640000  54.7190000  -3.2870000
  10.0740000  58.1010000  -5.3060000  11.1180000  57.6470000  -4.8320000
  10.0050000  58.5630000  -6.5610000   9.1120000  58.8870000  -6.9020000
  11.0820000  58.3720000  -7.5520000  11.2210000  57.2960000  -7.6530000
  10.6620000  58.8710000  -8.9420000  10.4420000  59.9380000  -8.9140000
  11.4780000  58.7010000  -9.6450000   9.5150000  58.1680000  -9.3870000
   9.2650000  58.5140000 -10.2470000  12.4690000  58.9300000  -7.1600000
  13.4460000  58.1930000  -7.3210000  12.6170000  60.1630000  -6.6220000
  11.5980000  61.1910000  -6.4830000  11.0930000  61.0720000  -5.5240000
  10.8730000  61.1650000  -7.2970000  12.3430000  62.5210000  -6.5080000
  11.7970000  63.3010000  -5.9790000  12.5400000  62.8140000  -7.5390000
  13.6530000  62.1690000  -5.8110000  13.5020000  62.1950000  -4.7310000
  14.4560000  62.8470000  -6.0980000  13.9260000  60.7360000  -6.2830000
  14.5260000  60.7790000  -7.1910000  14.6990000  59.9400000  -5.2230000
  15.9070000  59.7440000  -5.3620000  14.0090000  59.4500000  -4.1840000
  13.0190000  59.6460000  -4.1320000  14.6020000  58.5880000  -3.1550000
  15.4490000  59.1190000  -2.7210000  13.5590000  58.3440000  -2.0450000
  13.2630000  59.3060000  -1.6280000  12.6750000  57.8910000  -2.4930000
  14.0340000  57.4290000  -0.8980000  14.2860000  56.4450000  -1.2930000
  15.2450000  57.9880000  -0.1540000  15.0140000  58.9690000   0.2610000
  15.5120000  57.3100000   0.6570000  16.1000000  58.0660000  -0.8250000
  12.9080000  57.2650000   0.1200000  12.0640000  56.7680000  -0.3560000
  13.2480000  56.6520000   0.9550000  12.5930000  58.2390000   0.4950000
  15.1480000  57.2800000  -3.7530000  16.2780000  56.8880000  -3.4590000
  14.3640000  56.6320000  -4.6240000  13.4480000  57.0110000  -4.8150000
  14.7840000  55.4290000  -5.3470000  15.0560000  54.6610000  -4.6220000
  13.9530000  55.0590000  -5.9470000  15.9820000  55.6660000  -6.2720000
  16.9380000  54.8930000  -6.2600000  15.9530000  56.7490000  -7.0530000
  15.1240000  57.3260000  -7.0290000  17.0550000  57.1760000  -7.9240000
  17.2620000  56.3720000  -8.6300000  16.6140000  58.4060000  -8.7350000
  15.7240000  58.1360000  -9.3040000  16.3560000  59.2170000  -8.0550000
  17.7000000  58.9000000  -9.7030000  18.5730000  59.2120000  -9.1300000
  17.9980000  58.0740000 -10.3480000  17.2150000  60.0740000 -10.5780000
  17.9530000  61.0830000 -10.7010000  16.1130000  59.9940000 -11.1750000
  18.3620000  57.4260000  -7.1510000  19.4070000  56.8880000  -7.5200000
  18.3220000  58.2100000  -6.0700000  17.4450000  58.6410000  -5.8120000
  19.4970000  58.4680000  -5.2290000  20.2900000  58.8480000  -5.8730000
  19.1850000  59.5630000  -4.1970000  18.9040000  60.4680000  -4.7360000
  18.3510000  59.2530000  -3.5660000  20.4080000  59.8630000  -3.3180000
  20.4960000  59.0790000  -2.5660000  21.3000000  59.8300000  -3.9440000
  20.3450000  61.2370000  -2.6230000  21.4130000  61.8900000  -2.5030000
  19.2550000  61.6710000  -2.1800000  20.0470000  57.1870000  -4.5740000
  21.2570000  56.9550000  -4.5970000  19.1740000  56.3220000  -4.0420000
  18.1950000  56.5700000  -4.0300000  19.5700000  55.0250000  -3.4820000
  20.3200000  55.2100000  -2.7140000  18.3530000  54.3790000  -2.8030000
  17.9310000  55.0950000  -2.0990000  17.5970000  54.1430000  -3.5520000
  18.7230000  53.1010000  -2.0430000  19.0950000  52.3650000  -2.7560000
  19.5250000  53.3270000  -1.3410000  17.3560000  52.3370000  -1.1240000
  17.0510000  53.5790000   0.1650000  16.6740000  54.4990000  -0.2820000
  16.3060000  53.1990000   0.8650000  17.9740000  53.7870000   0.7060000
  20.2170000  54.0990000  -4.5300000  21.2190000  53.4410000  -4.2420000
  19.6940000  54.0830000  -5.7640000  18.8490000  54.6120000  -5.9260000
  20.2950000  53.3700000  -6.9030000  20.4800000  52.3410000  -6.5950000
  19.2950000  53.3490000  -8.0720000  18.3570000  52.9290000  -7.7100000
  19.1070000  54.3690000  -8.4100000  19.7810000  52.5030000  -9.2600000
  20.6470000  52.9770000  -9.7210000  20.0800000  51.5200000  -8.8960000
  18.6900000  52.3070000 -10.3220000  19.0760000  51.6250000 -11.0800000
  17.8250000  51.8230000  -9.8690000  18.3150000  53.5760000 -10.9860000
  18.9720000  53.9250000 -11.6690000  17.1950000  54.2670000 -10.8570000
  16.9950000  55.3310000 -11.5800000  17.6820000  55.6200000 -12.2610000
  16.1310000  55.8500000 -11.5120000  16.2610000  53.9350000 -10.0110000
  16.3910000  53.1160000  -9.4340000  15.4080000  54.4710000  -9.9420000
  21.6620000  53.9400000  -7.2870000  22.6010000  53.1740000  -7.4830000
  21.8080000  55.2620000  -7.3390000  20.9910000  55.8390000  -7.2020000
  23.0970000  55.9160000  -7.5960000  23.4880000  55.4990000  -8.5240000
  22.9020000  57.4220000  -7.8100000  22.0710000  57.5770000  -8.4980000
  22.6490000  57.8920000  -6.8600000  24.1550000  58.0810000  -8.4150000
  24.7400000  57.5140000  -9.3720000  24.5260000  59.1910000  -7.9650000
  24.1450000  55.6400000  -6.4990000  25.3050000  55.3660000  -6.8070000
  23.7410000  55.6360000  -5.2190000  22.7970000  55.9370000  -5.0260000
  24.5770000  55.1840000  -4.0890000  25.4560000  55.8240000  -4.0240000
  23.7760000  55.3090000  -2.7770000  23.4100000  56.3310000  -2.6750000
  22.9070000  54.6530000  -2.8310000  24.6000000  54.9600000  -1.5230000
  25.2370000  54.0940000  -1.7000000  25.2410000  55.8080000  -1.2800000
  23.7000000  54.6510000  -0.3210000  24.3180000  54.6470000   0.5770000
  22.9580000  55.4450000  -0.2280000  23.0140000  53.3450000  -0.4630000
  23.2190000  52.8050000  -1.2910000  22.1560000  52.8040000   0.3860000
  21.6070000  51.6530000   0.1310000  21.8320000  51.1460000  -0.7140000
  20.9570000  51.2400000   0.7850000  21.8330000  53.3910000   1.5010000
  22.2500000  54.2840000   1.7230000  21.2000000  52.9530000   2.1550000
  25.0790000  53.7510000  -4.3050000  26.2740000  53.4870000  -4.1870000
  24.1760000  52.8270000  -4.6350000  23.2070000  53.1060000  -4.6970000
  24.5170000  51.4310000  -4.9090000  25.0330000  51.0330000  -4.0350000
  23.2180000  50.6450000  -5.0860000  22.6840000  50.9950000  -5.9690000
  23.4510000  49.5860000  -5.2010000  22.5840000  50.7690000  -4.2080000
  25.4760000  51.2760000  -6.1070000  26.5000000  50.6030000  -5.9910000
  25.1950000  51.9560000  -7.2290000  24.3170000  52.4550000  -7.2570000
  26.0890000  52.0760000  -8.3970000  26.1950000  51.1000000  -8.8710000
  25.4410000  53.0490000  -9.4030000  24.4840000  52.6380000  -9.7250000
  25.2410000  53.9920000  -8.8940000  26.2940000  53.3550000 -10.6450000
  27.3160000  53.5910000 -10.3470000  26.3170000  52.4850000 -11.3010000
  25.7500000  54.5730000 -11.4020000  25.7140000  55.4210000 -10.7180000
  26.4500000  54.8220000 -12.1990000  24.4250000  54.3150000 -12.0010000
  24.3250000  53.4410000 -12.4970000  23.4050000  55.1510000 -12.0850000
  22.3670000  54.8360000 -12.8050000  22.3520000  53.9690000 -13.3230000
  21.6080000  55.4920000 -12.9220000  23.3730000  56.3030000 -11.4770000
  24.1160000  56.5770000 -10.8500000  22.5870000  56.9260000 -11.5980000
  27.4960000  52.5320000  -7.9840000  28.4790000  51.8620000  -8.3030000
  27.5880000  53.6370000  -7.2400000  26.7400000  54.1460000  -7.0350000
  28.8460000  54.1670000  -6.7210000  29.4900000  54.3980000  -7.5700000
  28.5730000  55.4770000  -5.9740000  27.9350000  55.2980000  -5.1080000
  29.5160000  55.9060000  -5.6350000  28.0830000  56.1880000  -6.6390000
  29.5980000  53.1490000  -5.8450000  30.8040000  52.9770000  -6.0170000
  28.9040000  52.4410000  -4.9440000  27.9260000  52.6550000  -4.8060000
  29.5000000  51.3540000  -4.1650000  30.3390000  51.7710000  -3.6070000
  28.5080000  50.8040000  -3.1340000  28.2280000  51.6040000  -2.4490000
  27.6060000  50.4550000  -3.6380000  29.0990000  49.6580000  -2.3490000
  28.9450000  48.3140000  -2.6120000  28.3420000  47.9030000  -3.3110000
  29.7530000  47.6320000  -1.7820000  29.8400000  46.5560000  -1.7510000
  30.4460000  48.4730000  -0.9970000  30.0380000  49.7640000  -1.3580000
  30.4340000  50.6900000  -0.9680000  30.0730000  50.2310000  -5.0440000
  31.2310000  49.8610000  -4.8580000  29.3070000  49.7040000  -6.0090000
  28.3640000  50.0510000  -6.1110000  29.7920000  48.6980000  -6.9750000
  30.0690000  47.8060000  -6.4140000  28.6930000  48.2830000  -7.9750000
  28.2870000  49.1710000  -8.4590000  29.2250000  47.3400000  -9.0630000
  29.6890000  46.4650000  -8.6090000  28.4050000  47.0180000  -9.7060000
  29.9560000  47.8530000  -9.6870000  27.5540000  47.5470000  -7.2570000
  27.1060000  48.1860000  -6.4960000  26.7780000  47.2780000  -7.9740000
  27.9320000  46.6420000  -6.7810000  31.0680000  49.1630000  -7.6920000
  32.0630000  48.4350000  -7.7100000  31.0660000  50.3740000  -8.2580000
  30.2110000  50.9100000  -8.2270000  32.2410000  50.9810000  -8.9000000
  32.5470000  50.3410000  -9.7280000  31.8840000  52.3610000  -9.4790000
  31.5230000  52.9980000  -8.6710000  32.7960000  52.8120000  -9.8690000
  30.8400000  52.3450000 -10.6130000  30.2620000  53.4240000 -10.8920000
  30.6390000  51.2990000 -11.2770000  33.4560000  51.0970000  -7.9570000
  34.5680000  50.6930000  -8.3150000  33.2600000  51.6250000  -6.7450000
  32.3340000  51.9530000  -6.5090000  34.2950000  51.7330000  -5.7180000
  35.1190000  52.3220000  -6.1220000  33.7230000  52.4850000  -4.5110000
  32.9010000  51.9220000  -4.0680000  34.5040000  52.6240000  -3.7640000
  33.3600000  53.4650000  -4.8230000  34.8660000  50.3610000  -5.3170000
  36.0830000  50.1880000  -5.2740000  34.0020000  49.3730000  -5.0710000
  33.0170000  49.5920000  -5.1190000  34.3670000  47.9930000  -4.7560000
  34.9840000  48.0070000  -3.8570000  33.0780000  47.2090000  -4.4550000
  32.5310000  47.7120000  -3.6570000  32.4500000  47.2210000  -5.3470000
  33.3120000  45.7460000  -4.0480000  33.9450000  45.2510000  -4.7840000
  33.9740000  45.6440000  -2.6770000  33.3780000  46.1690000  -1.9310000
  34.0490000  44.5930000  -2.3970000  34.9780000  46.0670000  -2.7080000
  31.9750000  45.0110000  -3.9940000  31.5030000  45.0370000  -4.9760000
  32.1350000  43.9700000  -3.7110000  31.3190000  45.4870000  -3.2650000
  35.1990000  47.3410000  -5.8710000  36.2730000  46.8030000  -5.6010000
  34.7440000  47.4340000  -7.1300000  33.8440000  47.8700000  -7.2720000
  35.4820000  46.9600000  -8.3150000  35.6640000  45.8910000  -8.2050000
  34.6100000  47.1770000  -9.5670000  33.6780000  46.6250000  -9.4390000
  34.3690000  48.2360000  -9.6650000  35.2940000  46.6990000 -10.8570000
  36.1670000  47.3200000 -11.0600000  35.6200000  45.6670000 -10.7320000
  34.3460000  46.7850000 -12.0560000  33.4690000  46.1670000 -11.8600000
  34.0070000  47.8150000 -12.1690000  35.0160000  46.3000000 -13.2820000
  35.2840000  45.3260000 -13.2870000  35.3520000  46.9960000 -14.3550000
  35.9770000  46.4210000 -15.3410000  36.2350000  45.4460000 -15.2860000
  36.2420000  46.9540000 -16.1570000  35.0840000  48.2650000 -14.4800000
  34.6020000  48.7440000 -13.7320000  35.3590000  48.7720000 -15.3080000
  36.8580000  47.6290000  -8.4370000  37.8530000  46.9540000  -8.6960000
  36.9190000  48.9430000  -8.2050000  36.0460000  49.4190000  -8.0270000
  38.1690000  49.7250000  -8.1680000  38.6780000  49.5960000  -9.1230000
  37.8790000  51.2300000  -8.0000000  37.3920000  51.4050000  -7.0410000
  39.1440000  52.0850000  -8.0650000  39.6800000  51.8870000  -8.9930000
  38.8750000  53.1410000  -8.0240000  39.7920000  51.8650000  -7.2160000
  37.0250000  51.6840000  -9.0290000  36.1500000  51.3320000  -8.8500000
  39.1250000  49.2210000  -7.0750000  40.2970000  48.9570000  -7.3430000
  38.6230000  49.0540000  -5.8470000  37.6580000  49.3070000  -5.6900000
  39.3680000  48.5540000  -4.6870000  40.2170000  49.2160000  -4.5190000
  38.4510000  48.6400000  -3.4560000  38.2590000  49.6890000  -3.2320000
  37.4950000  48.1700000  -3.6850000  39.0090000  47.9750000  -2.2240000
  40.0950000  48.3890000  -1.4880000  40.6370000  49.2290000  -1.6350000
  40.3300000  47.4680000  -0.5380000  41.1300000  47.5270000   0.1860000
  39.4440000  46.4610000  -0.6220000  38.6020000  46.7780000  -1.6960000
  37.7880000  46.1740000  -2.0710000  39.9230000  47.1270000  -4.8770000
  41.0570000  46.8470000  -4.4750000  39.1440000  46.2380000  -5.5020000
  38.2130000  46.5370000  -5.7520000  39.4460000  44.8120000  -5.6580000
  39.5480000  44.3880000  -4.6590000  38.2360000  44.1480000  -6.3450000
  37.3460000  44.3340000  -5.7440000  38.0880000  44.6250000  -7.3150000
  38.3610000  42.6310000  -6.5740000  39.2450000  42.4150000  -7.1740000
  38.4550000  41.8680000  -5.2530000  37.6110000  42.1240000  -4.6130000
  38.4440000  40.7960000  -5.4470000  39.3870000  42.1120000  -4.7440000
  37.1390000  42.1290000  -7.3440000  37.0870000  42.6260000  -8.3130000
  37.2200000  41.0550000  -7.5080000  36.2280000  42.3420000  -6.7860000
  40.7580000  44.5120000  -6.4080000  41.4850000  43.5970000  -6.0210000
  41.0730000  45.2500000  -7.4790000  40.4520000  45.9960000  -7.7560000
  42.2290000  44.9430000  -8.3280000  42.1050000  43.9120000  -8.6570000
  42.1770000  45.7900000  -9.6080000  42.0270000  46.8470000  -9.3860000
  43.0990000  45.6620000 -10.1740000  41.3410000  45.4560000 -10.2230000
  43.5840000  44.9540000  -7.5690000  44.2700000  43.9270000  -7.5980000
  43.9590000  46.0070000  -6.8060000  43.4570000  47.3740000  -6.8870000
  42.5940000  47.4980000  -6.2340000  43.2010000  47.6610000  -7.9070000
  44.6020000  48.2650000  -6.4140000  44.2380000  49.1940000  -5.9760000
  45.2740000  48.4700000  -7.2470000  45.3110000  47.3890000  -5.3880000
  44.7950000  47.4610000  -4.4310000  46.3590000  47.6690000  -5.2750000
  45.1620000  45.9780000  -5.9650000  46.0200000  45.7780000  -6.6070000
  45.1390000  44.9280000  -4.8400000  46.1930000  44.3910000  -4.4950000
  43.9630000  44.6140000  -4.2730000  43.1270000  45.0720000  -4.6080000
  43.8160000  43.5490000  -3.2670000  44.4680000  43.7820000  -2.4260000
  42.3700000  43.5050000  -2.7380000  42.0990000  44.4880000  -2.3530000
  41.6880000  43.2840000  -3.5590000  42.1290000  42.4830000  -1.6430000
  41.7330000  41.1700000  -1.9720000  41.5960000  40.8890000  -3.0050000
  41.5150000  40.2200000  -0.9540000  41.2140000  39.2150000  -1.2100000
  41.6940000  40.5850000   0.3990000  41.4920000  39.6770000   1.3910000
  41.2150000  38.8280000   1.0410000  42.0850000  41.9000000   0.7270000
  42.2260000  42.1670000   1.7630000  42.2940000  42.8490000  -0.2920000
  42.5860000  43.8560000  -0.0360000  44.2580000  42.1820000  -3.8240000
  45.0750000  41.4890000  -3.2130000  43.7610000  41.8140000  -5.0110000
  43.0550000  42.3980000  -5.4350000  44.1030000  40.5500000  -5.6810000
  44.0650000  39.7480000  -4.9450000  43.0620000  40.2300000  -6.7580000
  43.0760000  41.0100000  -7.5200000  43.3040000  39.2750000  -7.2240000
  41.7730000  40.1550000  -6.1750000  41.1290000  40.0220000  -6.8750000
  45.5080000  40.5230000  -6.3010000  46.1180000  39.4570000  -6.3740000
  46.0410000  41.6660000  -6.7470000  45.4720000  42.5000000  -6.7110000
  47.3450000  41.7660000  -7.4210000  47.2790000  41.2180000  -8.3610000
  47.6350000  43.2370000  -7.7520000  46.8060000  43.6380000  -8.3350000
  47.7010000  43.8050000  -6.8250000  48.9250000  43.4230000  -8.5690000
  49.1570000  42.6640000  -9.5400000  49.6950000  44.3680000  -8.2680000
  48.5080000  41.1510000  -6.6150000  49.2650000  40.3350000  -7.1420000
  48.6330000  41.5070000  -5.3290000  47.9740000  42.1790000  -4.9610000
  49.6610000  40.9700000  -4.4220000  50.6370000  41.2650000  -4.8070000
  49.4920000  41.5880000  -3.0220000  49.5940000  42.6710000  -3.0960000
  48.4830000  41.3760000  -2.6680000  50.4810000  41.0620000  -1.9680000
  50.2520000  41.5470000  -1.0190000  50.3080000  39.9950000  -1.8280000
  51.9690000  41.3000000  -2.3030000  52.8220000  40.5220000  -1.8120000
  52.3020000  42.3060000  -2.9740000  49.6510000  39.4310000  -4.3610000
  50.6980000  38.7960000  -4.5070000  48.4690000  38.8290000  -4.1610000
  47.6510000  39.4150000  -4.0710000  48.2760000  37.3760000  -4.1980000
  48.9150000  36.9290000  -3.4360000  46.8030000  37.0540000  -3.8620000
  46.5910000  37.3860000  -2.8460000  46.1630000  37.6280000  -4.5310000
  46.4110000  35.5680000  -4.0000000  46.6440000  35.2140000  -5.0040000
  47.1410000  34.6820000  -2.9880000  46.9230000  35.0130000  -1.9730000
  46.8110000  33.6490000  -3.1020000  48.2160000  34.7230000  -3.1610000
  44.9060000  35.4210000  -3.7960000  44.3750000  35.9690000  -4.5740000
  44.6230000  34.3700000  -3.8550000  44.6210000  35.8220000  -2.8230000
  48.7000000  36.7800000  -5.5490000  49.5250000  35.8680000  -5.5890000
  48.1380000  37.2940000  -6.6500000  47.5070000  38.0730000  -6.5270000
  48.3250000  36.7580000  -8.0120000  48.0230000  35.7100000  -8.0240000
  47.4250000  37.5260000  -8.9960000  47.5820000  38.5970000  -8.8670000
  47.7050000  37.2620000 -10.0160000  45.9360000  37.1910000  -8.7920000
  45.7570000  36.1480000  -9.0550000  45.6680000  37.3210000  -7.7440000
  45.0290000  38.0950000  -9.6340000  43.9970000  37.9280000  -9.3250000
  45.2870000  39.1340000  -9.4290000  45.1530000  37.8100000 -11.0780000
  45.6210000  36.9530000 -11.3350000  44.6980000  38.5470000 -12.0770000
  44.8880000  38.1740000 -13.3090000  45.3930000  37.3230000 -13.5120000
  44.5460000  38.7400000 -14.0720000  44.0490000  39.6600000 -11.8810000
  43.8850000  39.9790000 -10.9370000  43.7170000  40.2070000 -12.6630000
  49.7880000  36.7820000  -8.4610000  50.2670000  35.8000000  -9.0280000
  50.5080000  37.8650000  -8.1560000  50.0300000  38.6330000  -7.7070000
  51.9310000  38.0280000  -8.4740000  52.0310000  37.9640000  -9.5570000
  52.3860000  39.4380000  -8.0510000  51.6720000  40.1510000  -8.4630000
  52.3580000  39.5350000  -6.9660000  53.7730000  39.8370000  -8.5910000
  53.8540000  39.5240000  -9.6310000  53.8420000  40.9240000  -8.5750000
  54.9710000  39.2990000  -7.8030000  54.8870000  38.8870000  -6.6540000
  56.1490000  39.2990000  -8.3920000  56.9440000  38.9490000  -7.8770000
  56.2500000  39.6440000  -9.3360000  52.7980000  36.9050000  -7.8750000
  53.6120000  36.3140000  -8.5900000  52.5920000  36.5650000  -6.5910000
  51.9250000  37.1040000  -6.0580000  53.2880000  35.4410000  -5.9340000
  54.3410000  35.4750000  -6.2110000  53.2040000  35.5540000  -4.4040000
  52.1650000  35.4570000  -4.0890000  53.7710000  34.7240000  -3.9810000
  53.7650000  36.8670000  -3.8380000  54.7030000  37.1200000  -4.3310000
  53.0460000  37.6690000  -4.0070000  54.0210000  36.7020000  -2.3360000
  53.2120000  36.1230000  -1.8910000  54.9500000  36.1430000  -2.2200000
  54.1150000  37.9970000  -1.6440000  53.5730000  38.7700000  -2.0030000
  54.8100000  38.2730000  -0.5600000  54.7570000  39.4800000  -0.0880000
  54.1480000  40.1250000  -0.5710000  55.3010000  39.7520000   0.7180000
  55.5420000  37.4000000   0.0630000  55.5250000  36.4340000  -0.2330000
  56.0640000  37.6510000   0.8900000  52.7740000  34.0740000  -6.3870000
  53.5690000  33.1730000  -6.6340000  51.4530000  33.9180000  -6.5190000
  50.8710000  34.7110000  -6.2910000  50.7790000  32.6550000  -6.8610000
  50.9880000  31.9390000  -6.0660000  49.2600000  32.9240000  -6.8970000
  48.9520000  33.3180000  -5.9280000  49.0740000  33.6960000  -7.6430000
  48.3600000  31.7210000  -7.2340000  48.6440000  31.3100000  -8.2030000
  48.4490000  30.6250000  -6.1710000  48.2190000  31.0350000  -5.1880000
  47.7260000  29.8420000  -6.3960000  49.4440000  30.1810000  -6.1730000
  46.9070000  32.1860000  -7.3100000  46.8050000  32.9560000  -8.0750000
  46.2650000  31.3470000  -7.5780000  46.5880000  32.5900000  -6.3490000
  51.3010000  32.0330000  -8.1690000  51.5590000  30.8300000  -8.2160000
  51.5100000  32.8580000  -9.2000000  51.2450000  33.8270000  -9.0970000
  52.1080000  32.4440000 -10.4710000  51.4620000  31.6920000 -10.9250000
  52.1420000  33.6630000 -11.4000000  52.7610000  34.4510000 -10.9700000
  52.5520000  33.3750000 -12.3680000  51.1310000  34.0440000 -11.5470000
  53.5080000  31.8110000 -10.3030000  53.7730000  30.7330000 -10.8410000
  54.3970000  32.4590000  -9.5410000  54.1210000  33.3370000  -9.1250000
  55.7470000  31.9630000  -9.2530000  56.2190000  31.6810000 -10.1940000
  56.5610000  33.1140000  -8.6480000  56.1270000  33.4280000  -7.6990000
  57.5870000  32.7870000  -8.4790000  56.5720000  33.9600000  -9.3350000
  55.7610000  30.7180000  -8.3410000  56.5300000  29.7820000  -8.5740000
  54.8900000  30.6850000  -7.3200000  54.3250000  31.5100000  -7.1810000
  54.8200000  29.6230000  -6.2930000  55.7910000  29.5670000  -5.8010000
  53.7640000  30.0300000  -5.2460000  53.8780000  31.0930000  -5.0350000
  52.7660000  29.8680000  -5.6550000  53.9120000  29.2740000  -3.9160000
  53.8750000  28.2000000  -4.1020000  54.8780000  29.5160000  -3.4730000
  52.8010000  29.6290000  -2.9170000  51.8480000  29.2930000  -3.3250000
  52.9760000  29.0690000  -1.9980000  52.7700000  31.0750000  -2.5900000
  53.5830000  31.4630000  -2.1330000  51.7940000  31.9430000  -2.7650000
  51.9470000  33.1500000  -2.3180000  52.8340000  33.3500000  -1.8780000
  51.2210000  33.8490000  -2.3830000  50.6770000  31.6530000  -3.3690000
  50.5440000  30.7190000  -3.7310000  49.9370000  32.3350000  -3.4480000
  54.5480000  28.2320000  -6.8830000  55.1270000  27.2460000  -6.4310000
  53.7180000  28.1630000  -7.9270000  53.2710000  29.0210000  -8.2160000
  53.4160000  26.9380000  -8.6790000  52.9260000  26.2360000  -8.0040000
  52.4230000  27.2970000  -9.8010000  51.5000000  27.6520000  -9.3450000
  52.8440000  28.1170000 -10.3820000  52.0930000  26.1530000 -10.7810000
  53.0000000  25.8480000 -11.3030000  51.4880000  24.9280000 -10.0920000
  50.5810000  25.2000000  -9.5530000  51.2480000  24.1780000 -10.8450000
  52.2040000  24.4910000  -9.3960000  51.0910000  26.6510000 -11.8220000
  51.5140000  27.5010000 -12.3570000  50.8790000  25.8580000 -12.5390000
  50.1640000  26.9570000 -11.3370000  54.6760000  26.2370000  -9.2210000
  54.7960000  25.0180000  -9.1110000  55.6330000  26.9850000  -9.7750000
  55.5050000  27.9860000  -9.8110000  56.8820000  26.4190000 -10.3080000
  56.6280000  25.6290000 -11.0140000  57.6880000  27.4920000 -11.0600000
  58.0060000  28.2620000 -10.3570000  58.5860000  27.0280000 -11.4670000
  56.9190000  28.1660000 -12.2080000  56.1280000  28.7830000 -11.7820000
  57.6030000  28.8350000 -12.7320000  56.3160000  27.1680000 -13.2200000
  55.1720000  27.3910000 -13.6850000  56.9870000  26.1710000 -13.5840000
  57.7420000  25.7600000  -9.2160000  58.2440000  24.6510000  -9.4090000
  57.8710000  26.4030000  -8.0490000  57.4370000  27.3100000  -7.9520000
  58.5470000  25.8310000  -6.8820000  59.5590000  25.5540000  -7.1760000
  58.6500000  26.9090000  -5.7970000  57.6570000  27.2440000  -5.4980000
  59.1690000  26.5060000  -4.9270000  59.2140000  27.7610000  -6.1770000
  57.8570000  24.5520000  -6.3690000  58.5280000  23.5600000  -6.0750000
  56.5200000  24.5470000  -6.2890000  56.0310000  25.4020000  -6.5130000
  55.7280000  23.3580000  -5.9440000  56.0620000  22.9920000  -4.9730000
  54.2360000  23.7350000  -5.8440000  53.9490000  24.2620000  -6.7530000
  53.6400000  22.8230000  -5.7970000  53.8900000  24.6120000  -4.6250000
  54.6050000  25.4310000  -4.5420000  52.4960000  25.2140000  -4.7850000
  51.7510000  24.4230000  -4.8700000  52.2660000  25.8370000  -3.9210000
  52.4660000  25.8380000  -5.6790000  53.9170000  23.7990000  -3.3300000
  54.9330000  23.4730000  -3.1080000  53.5640000  24.4120000  -2.5000000
  53.2640000  22.9310000  -3.4190000  55.9510000  22.2020000  -6.9370000
  56.2150000  21.0760000  -6.5120000  55.9120000  22.4830000  -8.2470000
  55.6630000  23.4260000  -8.5110000  56.1710000  21.5110000  -9.3250000
  55.4640000  20.6870000  -9.2260000  55.9230000  22.2020000 -10.6800000
  54.9310000  22.6530000 -10.6720000  56.6560000  22.9980000 -10.8160000
  56.0050000  21.2350000 -11.8720000  56.9580000  20.7080000 -11.8550000
  55.1960000  20.5080000 -11.7990000  55.8940000  21.9970000 -13.2000000
  54.9520000  22.5430000 -13.2320000  56.7160000  22.7100000 -13.2690000
  55.9720000  21.0190000 -14.3810000  56.8920000  20.4410000 -14.2920000
  55.1350000  20.3220000 -14.3240000  55.9530000  21.7340000 -15.6860000
  56.7190000  22.3880000 -15.7560000  56.0430000  21.0840000 -16.4540000
  55.0930000  22.2460000 -15.8170000  57.5780000  20.9080000  -9.2330000
  57.7290000  19.6870000  -9.2500000  58.6010000  21.7520000  -9.0850000
  58.3970000  22.7410000  -9.1100000  60.0040000  21.3440000  -8.9170000
  60.3130000  20.8000000  -9.8100000  60.8880000  22.5990000  -8.8060000
  60.7610000  23.1890000  -9.7130000  60.5630000  23.1960000  -7.9540000
  62.3770000  22.2610000  -8.6460000  62.5410000  21.8110000  -7.6670000
  62.6470000  21.5260000  -9.4040000  63.2810000  23.5020000  -8.7880000
  64.3430000  23.4020000  -9.4530000  62.9620000  24.5770000  -8.2240000
  60.2070000  20.3940000  -7.7230000  60.8100000  19.3280000  -7.8620000
  59.6710000  20.7530000  -6.5500000  59.1820000  21.6350000  -6.4970000
  59.7700000  19.9240000  -5.3440000  60.7990000  19.5750000  -5.2580000
  59.4800000  20.7880000  -4.1070000  58.5640000  21.3620000  -4.2480000
  59.3450000  20.1340000  -3.2450000  60.6440000  21.7170000  -3.7890000
  61.5880000  21.3460000  -3.1070000  60.6250000  22.9400000  -4.2640000
  61.4050000  23.5480000  -4.0600000  59.8630000  23.2420000  -4.8550000
  58.9070000  18.6480000  -5.4120000  59.2940000  17.6230000  -4.8530000
  57.7900000  18.6610000  -6.1500000  57.4720000  19.5440000  -6.5230000
  57.0680000  17.4470000  -6.5560000  56.6940000  16.9310000  -5.6720000
  56.2190000  17.7230000  -7.1810000  57.9570000  16.4800000  -7.3460000
  58.0520000  15.3030000  -7.0010000  58.6780000  16.9850000  -8.3530000
  58.5300000  17.9530000  -8.6010000  59.6900000  16.2280000  -9.1030000
  59.2040000  15.4160000  -9.6430000  60.1610000  16.8870000  -9.8330000
  60.7920000  15.6340000  -8.2140000  61.1340000  14.4580000  -8.3520000
  61.3120000  16.4190000  -7.2640000  61.0410000  17.3920000  -7.2520000
  62.2740000  15.9500000  -6.2630000  63.1470000  15.5660000  -6.7920000
  62.7370000  17.1360000  -5.4090000  61.9120000  17.5220000  -4.8100000
  63.5330000  16.8110000  -4.7390000  63.1210000  17.9290000  -6.0510000
  61.7200000  14.7920000  -5.4060000  62.3600000  13.7440000  -5.3020000
  60.5080000  14.9380000  -4.8440000  60.0390000  15.8250000  -4.9530000
  59.8220000  13.8630000  -4.0960000  60.4510000  13.5690000  -3.2550000
  58.4680000  14.3510000  -3.5500000  57.9520000  14.9430000  -4.3060000
  57.8500000  13.4830000  -3.3200000  58.6280000  15.1680000  -2.2600000
  59.1250000  14.5460000  -1.5150000  59.2460000  16.0470000  -2.4440000
  57.2680000  15.5910000  -1.6900000  56.5820000  14.7450000  -1.7370000
  57.3820000  15.8450000  -0.6360000  56.6900000  16.7350000  -2.4280000
  56.0130000  16.5060000  -3.1420000  56.9350000  18.0170000  -2.2240000
  56.3520000  18.9240000  -2.9570000  55.7040000  18.6550000  -3.6830000
  56.4670000  19.9070000  -2.7540000  57.7520000  18.4250000  -1.2940000
  58.1340000  17.7530000  -0.6440000  57.9380000  19.4080000  -1.1520000
  59.6460000  12.5920000  -4.9300000  59.9500000  11.5090000  -4.4370000
  59.2180000  12.7100000  -6.1880000  58.9650000  13.6330000  -6.5130000
  59.0830000  11.5730000  -7.1100000  58.4000000  10.8520000  -6.6610000
  58.4870000  12.0450000  -8.4490000  59.0660000  12.8960000  -8.8080000
  58.5860000  11.2470000  -9.1840000  57.0030000  12.4460000  -8.3630000
  56.8410000  13.1090000  -7.5130000  56.5810000  13.1790000  -9.6360000
  56.7280000  12.5370000 -10.5050000  55.5300000  13.4600000  -9.5680000
  57.1750000  14.0850000  -9.7500000  56.0980000  11.2280000  -8.1990000
  56.3100000  10.7160000  -7.2600000  55.0620000  11.5660000  -8.1750000
  56.2350000  10.5370000  -9.0310000  60.4070000  10.8200000  -7.3280000
  60.4190000   9.5900000  -7.2760000  61.5210000  11.5330000  -7.5230000
  61.4460000  12.5380000  -7.5870000  62.8520000  10.9310000  -7.6320000
  62.8370000  10.2240000  -8.4610000  63.8680000  12.0260000  -7.9740000
  63.9380000  12.7490000  -7.1610000  64.8480000  11.5770000  -8.1320000
  63.5650000  12.5400000  -8.8870000  63.2550000  10.1390000  -6.3670000
  63.7300000   9.0050000  -6.4660000  63.0320000  10.7020000  -5.1740000
  62.6690000  11.6440000  -5.1510000  63.2670000  10.0080000  -3.8990000
  64.2840000   9.6170000  -3.9070000  63.1470000  10.9920000  -2.7210000
  62.1470000  11.4260000  -2.7150000  63.2730000  10.4350000  -1.7930000
  64.1800000  12.1310000  -2.7270000  63.9320000  12.8240000  -3.5310000
  64.0880000  12.6820000  -1.7910000  65.6410000  11.6610000  -2.8950000
  66.0450000  10.6460000  -2.2780000  66.4120000  12.3280000  -3.6280000
  62.3560000   8.7800000  -3.7020000  62.8400000   7.7060000  -3.3400000
  61.0530000   8.8910000  -3.9940000  60.6990000   9.7960000  -4.2680000
  60.1200000   7.7520000  -3.9900000  60.1180000   7.3180000  -2.9900000
  58.6870000   8.2150000  -4.3060000  58.7140000   9.1050000  -4.9350000
  58.1930000   7.4400000  -4.8930000  57.8220000   8.4920000  -3.0860000
  56.7570000   7.6230000  -2.7700000  56.5630000   6.7580000  -3.3870000
  55.9230000   7.8890000  -1.6650000  55.0980000   7.2280000  -1.4440000
  56.1510000   9.0330000  -0.8690000  55.3650000   9.2920000   0.2090000
  54.5550000   8.7760000   0.2020000  57.2280000   9.8910000  -1.1740000
  57.3950000  10.7660000  -0.5630000  58.0610000   9.6200000  -2.2780000
  58.8760000  10.2890000  -2.5110000  60.5610000   6.6330000  -4.9500000
  60.5450000   5.4650000  -4.5640000  60.9980000   6.9660000  -6.1690000
  60.9480000   7.9350000  -6.4480000  61.5540000   6.0020000  -7.1260000
  60.8000000   5.2410000  -7.3250000  61.8520000   6.7190000  -8.4520000
  60.9110000   7.0240000  -8.9100000  62.4310000   7.6220000  -8.2530000
  62.6230000   5.8750000  -9.4360000  62.1790000   4.7300000 -10.0600000
  61.2510000   4.3350000 -10.0040000  63.1970000   4.2210000 -10.7760000
  63.1400000   3.3220000 -11.3710000  64.2960000   4.9880000 -10.6410000
  63.9400000   6.0360000  -9.7810000  64.5910000   6.8220000  -9.4270000
  62.7930000   5.2680000  -6.5780000  62.8680000   4.0380000  -6.6640000
  63.7420000   5.9910000  -5.9720000  63.6420000   6.9960000  -5.9510000
  64.9130000   5.4020000  -5.3180000  65.4700000   4.8360000  -6.0640000
  65.8220000   6.5320000  -4.8160000  65.3120000   7.1250000  -4.0580000
  66.7260000   6.1060000  -4.3820000  66.1020000   7.1780000  -5.6480000
  64.5250000   4.4180000  -4.1930000  64.9830000   3.2720000  -4.1870000
  63.6220000   4.8310000  -3.2900000  63.3170000   5.7930000  -3.3480000
  63.0710000   3.9910000  -2.2100000  63.8880000   3.6570000  -1.5710000
  62.1120000   4.8470000  -1.3630000  62.6790000   5.6700000  -0.9270000
  61.3550000   5.2720000  -2.0210000  61.4270000   4.0660000  -0.2240000
  60.8550000   3.2310000  -0.6280000  62.1960000   3.6690000   0.4380000
  60.4790000   4.9520000   0.5990000  60.1380000   4.3860000   1.4660000
  61.0400000   5.8150000   0.9590000  59.2540000   5.4190000  -0.2100000
  59.5790000   5.7610000  -1.1930000  58.5960000   4.5640000  -0.3660000
  58.5260000   6.5230000   0.4800000  59.1070000   7.3440000   0.5760000
  57.7130000   6.8020000  -0.0510000  58.2220000   6.2450000   1.4020000
  62.3810000   2.7330000  -2.7460000  62.7030000   1.6310000  -2.3080000
  61.4700000   2.8810000  -3.7100000  61.2420000   3.8180000  -4.0090000
  60.7610000   1.7670000  -4.3450000  60.2130000   1.2230000  -3.5760000
  59.7420000   2.3350000  -5.3400000  60.2490000   2.8990000  -6.1230000
  59.1810000   1.5190000  -5.7960000  59.0440000   2.9920000  -4.8210000
  61.7250000   0.7710000  -5.0150000  61.5810000  -0.4390000  -4.8450000
  62.7390000   1.2760000  -5.7280000  62.7760000   2.2780000  -5.8440000
  63.8080000   0.4670000  -6.3410000  63.3470000  -0.2390000  -7.0320000
  64.7750000   1.3460000  -7.1560000  65.2600000   2.0650000  -6.4950000
  65.8560000   0.5320000  -7.8680000  65.3970000  -0.2410000  -8.4850000
  66.4520000   1.1890000  -8.5000000  66.5180000   0.0650000  -7.1390000
  64.0700000   2.0540000  -8.1530000  63.5960000   2.7640000  -7.7130000
  64.5680000  -0.3610000  -5.2970000  64.6770000  -1.5800000  -5.4340000
  65.0730000   0.2760000  -4.2350000  64.9660000   1.2790000  -4.1770000
  65.7530000  -0.4030000  -3.1220000  66.6160000  -0.9330000  -3.5260000
  66.2810000   0.6480000  -2.1300000  66.9400000   1.3230000  -2.6760000
  65.4480000   1.2260000  -1.7300000  67.0540000   0.0150000  -0.9630000
  66.3690000  -0.5920000  -0.3720000  67.8220000  -0.6450000  -1.3680000
  67.7290000   1.0640000  -0.0550000  67.6750000   0.9070000   1.1900000
  68.3460000   2.0320000  -0.5640000  64.8640000  -1.4590000  -2.4370000
  65.2790000  -2.6070000  -2.2640000  63.6240000  -1.0920000  -2.0920000
  63.3520000  -0.1330000  -2.2500000  62.6270000  -1.9930000  -1.5060000
  62.9940000  -2.3340000  -0.5380000  61.3250000  -1.2070000  -1.2780000
  61.5450000  -0.3340000  -0.6640000  60.9400000  -0.8520000  -2.2330000
  60.2460000  -2.0030000  -0.5890000  60.0970000  -2.1660000   0.7710000
  60.6460000  -1.7170000   1.4900000  59.0520000  -2.9840000   0.9820000
  58.6910000  -3.2840000   1.9550000  58.5130000  -3.3690000  -0.1890000
  59.2700000  -2.7510000  -1.1930000  59.1240000  -2.8540000  -2.2580000
  62.3910000  -3.2390000  -2.3800000  62.4820000  -4.3670000  -1.8910000
  62.1410000  -3.0480000  -3.6820000  62.0730000  -2.1000000  -4.0220000
  61.9430000  -4.1320000  -4.6490000  61.1480000  -4.7690000  -4.2630000
  61.4580000  -3.5300000  -5.9820000  60.5440000  -2.9660000  -5.7920000
  62.2130000  -2.8330000  -6.3440000  61.1780000  -4.5580000  -7.0960000
  62.1020000  -5.0710000  -7.3610000  60.1330000  -5.5980000  -6.6850000
  59.2340000  -5.0990000  -6.3210000  59.8800000  -6.2250000  -7.5400000
  60.5310000  -6.2420000  -5.9020000  60.6590000  -3.8330000  -8.3370000
  61.3880000  -3.0890000  -8.6580000  60.5120000  -4.5480000  -9.1460000
  59.7140000  -3.3380000  -8.1160000  63.1910000  -5.0160000  -4.8220000
  63.0650000  -6.2350000  -4.9180000  64.3930000  -4.4310000  -4.8140000
  64.4320000  -3.4220000  -4.7780000  65.6590000  -5.1800000  -4.8210000
  65.6830000  -5.7910000  -5.7230000  66.8480000  -4.2150000  -4.8910000
  66.7490000  -3.5920000  -5.7790000  66.8550000  -3.5730000  -4.0100000
  68.0650000  -4.9360000  -4.9540000  68.7830000  -4.3060000  -5.0510000
  65.7680000  -6.1340000  -3.6190000  65.9690000  -7.3400000  -3.7980000
  65.5530000  -5.6310000  -2.3970000  65.4210000  -4.6340000  -2.2990000
  65.5180000  -6.4590000  -1.1760000  66.4620000  -7.0000000  -1.1080000
  65.3990000  -5.5930000   0.0900000  64.4750000  -5.0170000   0.0490000
  65.4180000  -6.4220000   1.3780000  66.2730000  -7.0970000   1.3730000
  65.4890000  -5.7670000   2.2460000  64.5020000  -7.0060000   1.4630000
  66.4950000  -4.7060000   0.1600000  66.3360000  -4.0990000   0.8870000
  64.4060000  -7.5140000  -1.2160000  64.6430000  -8.6670000  -0.8580000
  63.2040000  -7.1620000  -1.6890000  63.0450000  -6.1940000  -1.9250000
  62.0960000  -8.1060000  -1.8790000  61.8840000  -8.5630000  -0.9130000
  60.8460000  -7.3230000  -2.3250000  60.6060000  -6.5820000  -1.5620000
  61.0850000  -6.7910000  -3.2450000  59.5970000  -8.1850000  -2.5910000
  59.8170000  -8.9200000  -3.3650000  59.1230000  -8.9170000  -1.3340000
  58.9320000  -8.2020000  -0.5340000  58.2070000  -9.4630000  -1.5560000
  59.8760000  -9.6360000  -1.0110000  58.4620000  -7.2950000  -3.0940000
  58.7610000  -6.8050000  -4.0210000  57.5770000  -7.9000000  -3.2910000
  58.2230000  -6.5360000  -2.3500000  62.4530000  -9.2470000  -2.8520000
  62.1820000 -10.4080000  -2.5570000  63.0930000  -8.9370000  -3.9820000
  63.2530000  -7.9600000  -4.1810000  63.5970000  -9.9300000  -4.9420000
  62.7570000 -10.5390000  -5.2760000  64.1670000  -9.2140000  -6.1730000
  63.3930000  -8.5810000  -6.6060000  65.0060000  -8.5850000  -5.8740000
  64.6040000 -10.1500000  -7.1420000  64.9160000  -9.6650000  -7.9090000
  64.6330000 -10.8770000  -4.3140000  64.5220000 -12.0990000  -4.4380000
  65.6060000 -10.3280000  -3.5750000  65.6570000  -9.3200000  -3.5300000
  66.5860000 -11.0990000  -2.7950000  67.1420000 -11.7330000  -3.4860000
  67.5930000 -10.1360000  -2.1410000  68.0790000  -9.5620000  -2.9300000
  67.0630000  -9.4450000  -1.4860000  68.6700000 -10.8680000  -1.3300000
  68.2140000 -11.3080000  -0.4430000  69.0720000 -11.6770000  -1.9400000
  69.8190000  -9.9360000  -0.8950000  69.5690000  -8.7660000  -0.5110000
  70.9950000 -10.3790000  -0.9130000  65.9250000 -12.0370000  -1.7640000
  66.2920000 -13.2100000  -1.6700000  64.9290000 -11.5380000  -1.0180000
  64.7280000 -10.5540000  -1.1220000  64.1070000 -12.3070000  -0.0660000
  64.7660000 -12.7800000   0.6620000  63.1940000 -11.3090000   0.6770000
  63.8180000 -10.5340000   1.1230000  62.5330000 -10.8280000  -0.0440000
  62.3300000 -11.9330000   1.7850000  61.6970000 -12.7080000   1.3540000
  62.9770000 -12.3770000   2.5410000  61.4480000 -10.8520000   2.4350000
  62.0970000 -10.1110000   2.9010000  60.8620000 -10.3430000   1.6700000
  60.5000000 -11.4080000   3.5120000  61.0770000 -12.0040000   4.2200000
  60.0880000 -10.5630000   4.0640000  59.3820000 -12.2130000   2.9310000
  59.7140000 -13.0320000   2.4410000  58.7500000 -12.5330000   3.6520000
  58.8330000 -11.6660000   2.2830000  63.3090000 -13.4350000  -0.7430000
  63.2340000 -14.5420000  -0.2120000  62.7040000 -13.1590000  -1.9000000
  62.7790000 -12.2140000  -2.2500000  61.8030000 -14.0710000  -2.6070000
  61.0030000 -14.3460000  -1.9200000  61.1590000 -13.3230000  -3.7810000
  61.9210000 -12.9970000  -4.4890000  60.4580000 -13.9820000  -4.2930000
  60.6140000 -12.4540000  -3.4130000  62.4580000 -15.3870000  -3.0670000
  61.9160000 -16.4560000  -2.7900000  63.6050000 -15.3450000  -3.7620000
  64.0130000 -14.4400000  -3.9490000  64.1850000 -16.5380000  -4.4180000
  63.4200000 -16.9280000  -5.0890000  65.3700000 -16.1330000  -5.3210000
  65.0020000 -15.4390000  -6.0770000  66.1360000 -15.6120000  -4.7460000
  66.0110000 -17.3360000  -6.0320000  66.4200000 -18.0220000  -5.2900000
  65.2510000 -17.8560000  -6.6140000  67.1470000 -16.8920000  -6.9620000
  66.7480000 -16.2270000  -7.7280000  67.9000000 -16.3580000  -6.3810000
  67.7870000 -18.1180000  -7.6250000  68.1520000 -18.7870000  -6.8460000
  67.0220000 -18.6500000  -8.1900000  68.9070000 -17.7330000  -8.5240000
  69.6370000 -17.2520000  -8.0180000  69.3210000 -18.5470000  -8.9540000
  68.5900000 -17.1250000  -9.2660000  64.4790000 -17.7060000  -3.4500000
  64.0200000 -18.8160000  -3.7330000  65.1350000 -17.5110000  -2.2860000
  65.9000000 -16.3480000  -1.8650000  65.2940000 -15.7360000  -1.1960000
  66.2600000 -15.7440000  -2.6980000  67.0860000 -16.9210000  -1.1000000
  67.5110000 -16.1950000  -0.4070000  67.8400000 -17.2780000  -1.8020000
  66.4510000 -18.1020000  -0.3720000  65.9980000 -17.7400000   0.5520000
  67.1840000 -18.8790000  -0.1530000  65.3670000 -18.6020000  -1.3360000
  65.7700000 -19.4560000  -1.8810000  64.0890000 -19.0490000  -0.6030000
  63.9580000 -20.2240000  -0.2650000  63.1150000 -18.1510000  -0.4000000
  63.2630000 -17.1940000  -0.6850000  61.7960000 -18.5090000   0.1320000
  61.9480000 -19.0830000   1.0450000  61.0410000 -17.2260000   0.4990000
  60.8320000 -16.6370000  -0.3940000  60.0980000 -17.4800000   0.9820000
  61.6340000 -16.6280000   1.1910000  60.9880000 -19.3980000  -0.8370000
  60.3570000 -20.3680000  -0.4180000  61.0390000 -19.1060000  -2.1410000
  61.5150000 -18.2600000  -2.4200000  60.4630000 -19.9530000  -3.1890000
  59.4280000 -20.1700000  -2.9250000  60.4730000 -19.1960000  -4.5300000
  61.4870000 -18.8430000  -4.7180000  60.2110000 -19.8860000  -5.3320000
  59.5020000 -17.9980000  -4.5730000  59.6030000 -17.4000000  -3.6680000
  59.8340000 -17.1080000  -5.7700000  59.7380000 -17.6750000  -6.6960000
  59.1550000 -16.2560000  -5.7950000  60.8550000 -16.7380000  -5.6780000
  58.0440000 -18.4470000  -4.6990000  57.7570000 -19.0440000  -3.8330000
  57.3950000 -17.5730000  -4.7420000  57.9090000 -19.0390000  -5.6040000
  61.1730000 -21.3160000  -3.2890000  60.5100000 -22.3300000  -3.4910000
  62.4950000 -21.3710000  -3.0960000  63.0040000 -20.5020000  -3.0300000
  63.2410000 -22.6340000  -2.9760000  63.0130000 -23.2380000  -3.8540000
  64.7520000 -22.3530000  -3.0060000  64.9820000 -21.8270000  -3.9330000
  65.0290000 -21.7130000  -2.1690000  65.5820000 -23.6400000  -2.9410000
  65.4900000 -24.0790000  -1.9470000  65.1830000 -24.3540000  -3.6610000
  67.0610000 -23.3720000  -3.2690000  67.9110000 -23.4130000  -2.3460000
  67.3880000 -23.1360000  -4.4580000  62.8170000 -23.4720000  -1.7500000
  62.5330000 -24.6610000  -1.8930000  62.7210000 -22.8610000  -0.5630000
  63.0080000 -21.8940000  -0.5130000  62.1550000 -23.4530000   0.6640000
  62.8050000 -24.2580000   1.0040000  62.1360000 -22.3620000   1.7510000
  63.1670000 -22.1300000   2.0180000  61.7050000 -21.4520000   1.3340000
  61.3640000 -22.7180000   3.0340000  60.5800000 -21.8590000   3.5030000
  61.6100000 -23.7950000   3.6290000  60.7570000 -24.0640000   0.4200000
  60.5220000 -25.2410000   0.7150000  59.8490000 -23.2900000  -0.1870000
  60.1050000 -22.3330000  -0.3830000  58.5250000 -23.7460000  -0.6230000
  57.9810000 -24.0860000   0.2580000  57.7730000 -22.5390000  -1.2170000
  57.6550000 -21.7870000  -0.4370000  58.3890000 -22.1060000  -2.0050000
  56.3910000 -22.8550000  -1.8190000  56.4810000 -23.6510000  -2.5580000
  55.3890000 -23.2770000  -0.7450000  55.2970000 -22.4900000   0.0030000
  54.4170000 -23.4550000  -1.2060000  55.7190000 -24.2010000  -0.2710000
  55.8430000 -21.6170000  -2.5250000  56.5330000 -21.3050000  -3.3100000
  54.8830000 -21.8540000  -2.9830000  55.7140000 -20.8010000  -1.8140000
  58.5900000 -24.9380000  -1.6000000  57.9290000 -25.9520000  -1.3740000
  59.3870000 -24.8390000  -2.6740000  59.8870000 -23.9710000  -2.8040000
  59.5510000 -25.8880000  -3.7000000  58.5720000 -26.1050000  -4.1290000
  60.4620000 -25.3540000  -4.8220000  60.0280000 -24.4350000  -5.2140000
  61.4440000 -25.1220000  -4.4100000  60.6230000 -26.3490000  -5.9840000
  61.1210000 -27.2520000  -5.6310000  59.6340000 -26.6220000  -6.3520000
  61.4260000 -25.7590000  -7.1520000  61.4180000 -26.4650000  -7.9830000
  60.9270000 -24.8530000  -7.4950000  62.8200000 -25.4300000  -6.7820000
  63.0170000 -24.4530000  -6.6150000  63.8540000 -26.2530000  -6.7180000
  65.0370000 -25.8020000  -6.4130000  65.1850000 -24.8170000  -6.2480000
  65.8260000 -26.4310000  -6.3720000  63.7450000 -27.5300000  -6.9530000
  62.8460000 -27.9090000  -7.2160000  64.5530000 -28.1340000  -6.9060000
  60.0710000 -27.2040000  -3.1110000  59.5220000 -28.2670000  -3.4000000
  61.0930000 -27.1290000  -2.2570000  61.4960000 -26.2180000  -2.0900000
  61.6330000 -28.2680000  -1.5090000  61.9680000 -29.0180000  -2.2260000
  62.8580000 -27.7990000  -0.7070000  63.5830000 -27.3780000  -1.4030000
  62.5570000 -27.0180000  -0.0080000  63.5330000 -28.9370000   0.0760000
  62.8530000 -29.3130000   0.8400000  63.7560000 -29.7530000  -0.6110000
  64.8360000 -28.5160000   0.7630000  65.2040000 -27.3500000   0.8480000
  65.5900000 -29.4560000   1.2930000  66.4490000 -29.1820000   1.7470000
  65.3140000 -30.4260000   1.2370000  60.5640000 -28.9270000  -0.6180000
  60.4200000 -30.1500000  -0.6230000  59.7920000 -28.1190000   0.1180000
  59.9890000 -27.1290000   0.1050000  58.6770000 -28.5770000   0.9520000
  59.0520000 -29.2800000   1.6960000  58.2640000 -27.7160000   1.4780000
  57.5340000 -29.2530000   0.1770000  56.9850000 -30.2520000   0.6390000
  57.1700000 -28.7230000  -0.9960000  57.6230000 -27.8660000  -1.2790000
  56.0350000 -29.1910000  -1.8030000  55.1480000 -29.1620000  -1.1700000
  55.8240000 -28.1970000  -2.9640000  55.6240000 -27.2110000  -2.5450000
  56.7520000 -28.1340000  -3.5330000  54.6900000 -28.5570000  -3.9460000
  54.8970000 -29.5220000  -4.4090000  53.3170000 -28.6120000  -3.2740000
  53.1030000 -27.6630000  -2.7820000  52.5500000 -28.8090000  -4.0230000
  53.2890000 -29.4160000  -2.5390000  54.6290000 -27.5080000  -5.0550000
  55.5860000 -27.4670000  -5.5760000  53.8530000 -27.7740000  -5.7720000
  54.4080000 -26.5270000  -4.6330000  56.1740000 -30.6400000  -2.3060000
  55.1810000 -31.3660000  -2.3340000  57.3780000 -31.0700000  -2.6970000
  58.1490000 -30.4200000  -2.6410000  57.6260000 -32.3840000  -3.3110000
  57.0930000 -32.3860000  -4.2620000  59.1280000 -32.5100000  -3.6390000
  59.3900000 -31.7320000  -4.3550000  59.7060000 -32.3240000  -2.7340000
  59.5560000 -33.8760000  -4.2120000  59.3150000 -34.6650000  -3.5000000
  58.8760000 -34.1870000  -5.5470000  59.0810000 -33.3940000  -6.2660000
  59.2530000 -35.1330000  -5.9380000  57.7990000 -34.2820000  -5.4080000
  61.0670000 -33.8850000  -4.4360000  61.5780000 -33.6950000  -3.4930000
  61.3770000 -34.8610000  -4.8100000  61.3450000 -33.1170000  -5.1580000
  57.0570000 -33.5860000  -2.5100000  56.2610000 -34.3380000  -3.0820000
  57.3800000 -33.7790000  -1.2120000  58.3880000 -33.0810000  -0.4250000
  58.3440000 -31.9990000  -0.5490000  59.3760000 -33.4460000  -0.7050000
  58.1070000 -33.4540000   1.0290000  57.3280000 -32.8090000   1.4380000
  59.0080000 -33.4050000   1.6400000  57.5800000 -34.8800000   0.9040000
  56.9530000 -35.1550000   1.7530000  58.4200000 -35.5690000   0.8190000
  56.8010000 -34.8640000  -0.4160000  56.9700000 -35.8130000  -0.9250000
  55.2880000 -34.7140000  -0.1910000  54.5850000 -35.7220000  -0.1530000
  54.7560000 -33.4870000  -0.0930000  55.3710000 -32.6890000  -0.1540000
  53.3010000 -33.2510000   0.0160000  52.9220000 -33.8430000   0.8480000
  52.9610000 -31.7780000   0.3100000  53.3240000 -31.1450000  -0.5000000
  51.4490000 -31.5570000   0.4520000  51.0460000 -32.2090000   1.2270000
  51.2500000 -30.5190000   0.7190000  50.9440000 -31.7630000  -0.4910000
  53.6200000 -31.3260000   1.6120000  54.7050000 -31.3370000   1.5070000
  53.3040000 -30.3110000   1.8500000  53.3370000 -31.9970000   2.4230000
  52.5730000 -33.7360000  -1.2360000  51.6140000 -34.5010000  -1.1330000
  53.0460000 -33.3260000  -2.4170000  53.8370000 -32.6990000  -2.4180000
  52.5280000 -33.7750000  -3.7090000  51.4770000 -33.4930000  -3.7630000
  53.2910000 -33.0330000  -4.8230000  53.1510000 -31.9600000  -4.6860000
  54.3550000 -33.2440000  -4.7150000  52.8690000 -33.4110000  -6.2550000
  53.0280000 -34.4770000  -6.4170000  51.4020000 -33.0790000  -6.5300000
  51.2130000 -32.0310000  -6.3000000  51.1670000 -33.2570000  -7.5800000
  50.7520000 -33.7080000  -5.9220000  53.7280000 -32.6430000  -7.2560000
  54.7790000 -32.8840000  -7.1000000  53.4530000 -32.9230000  -8.2730000
  53.5830000 -31.5700000  -7.1290000  52.6000000 -35.3040000  -3.8600000
  51.6200000 -35.9260000  -4.2660000  53.7280000 -35.9230000  -3.4990000
  54.5120000 -35.3570000  -3.2060000  53.8760000 -37.3840000  -3.4690000
  53.7120000 -37.7580000  -4.4790000  55.3130000 -37.7550000  -3.0680000
  55.9980000 -37.2930000  -3.7790000  55.5270000 -37.3650000  -2.0730000
  55.5440000 -39.2730000  -3.0770000  54.9850000 -39.7260000  -2.2580000
  55.1550000 -39.6750000  -4.0120000  57.0340000 -39.6460000  -2.9400000
  57.4800000 -40.6030000  -3.6200000  57.7710000 -39.0120000  -2.1450000
  52.8230000 -38.0650000  -2.5730000  52.0970000 -38.9450000  -3.0380000
  52.6870000 -37.6450000  -1.3100000  53.3190000 -36.9410000  -0.9560000
  51.6770000 -38.1910000  -0.3900000  51.8260000 -39.2690000  -0.3250000
  51.8350000 -37.6160000   1.0200000  51.5680000 -36.5590000   1.0100000
  51.1590000 -38.1480000   1.6890000  53.1590000 -37.7490000   1.5060000
  53.3820000 -38.6810000   1.5680000  50.2380000 -37.9600000  -0.8750000
  49.3950000 -38.8440000  -0.7240000  49.9460000 -36.8120000  -1.4950000
  50.6590000 -36.0980000  -1.5470000  48.6590000 -36.5430000  -2.1420000
  47.8710000 -36.6820000  -1.4020000  48.6010000 -35.0820000  -2.6090000
  48.7340000 -34.4300000  -1.7460000  49.4240000 -34.8870000  -3.2970000
  47.2970000 -34.7220000  -3.2950000  47.1950000 -34.7710000  -4.7000000
  48.0510000 -35.0460000  -5.2980000  45.9740000 -34.4680000  -5.3290000
  45.8960000 -34.5090000  -6.4060000  44.8530000 -34.1120000  -4.5580000
  43.9160000 -33.8800000  -5.0410000  44.9540000 -34.0570000  -3.1570000
  44.0950000 -33.7790000  -2.5650000  46.1730000 -34.3650000  -2.5260000
  46.2440000 -34.3240000  -1.4490000  48.3680000 -37.5230000  -3.2920000
  47.2900000 -38.1190000  -3.3280000  49.3370000 -37.7580000  -4.1890000
  50.1930000 -37.2280000  -4.1110000  49.2250000 -38.7500000  -5.2740000
  48.3420000 -38.5160000  -5.8690000  50.4540000 -38.6820000  -6.1970000
  51.3670000 -38.6810000  -5.6010000  50.4640000 -39.5660000  -6.8340000
  50.4240000 -37.4410000  -7.1030000  49.5290000 -37.4790000  -7.7240000
  50.3890000 -36.5360000  -6.4970000  51.6630000 -37.4010000  -8.0070000
  52.5570000 -37.3160000  -7.3900000  51.7140000 -38.3250000  -8.5840000
  51.5820000 -36.2070000  -8.9680000  50.6480000 -36.2730000  -9.5260000
  51.5570000 -35.2870000  -8.3840000  52.7320000 -36.1860000  -9.9130000
  52.7540000 -37.0200000 -10.4820000  52.6710000 -35.3980000 -10.5420000
  53.6150000 -36.1220000  -9.4280000  49.0030000 -40.1700000  -4.7430000
  48.0990000 -40.8540000  -5.2150000  49.7650000 -40.5940000  -3.7280000
  50.5170000 -39.9890000  -3.4320000  49.5360000 -41.8530000  -2.9850000
  49.6450000 -42.6820000  -3.6840000  50.5920000 -42.0490000  -1.8750000
  50.6590000 -41.1380000  -1.2800000  50.2650000 -43.2110000  -0.9300000
  50.1210000 -44.1290000  -1.4990000  51.0820000 -43.3550000  -0.2230000
  49.3630000 -42.9970000  -0.3570000  51.9680000 -42.3340000  -2.4900000
  52.2590000 -41.5320000  -3.1690000  52.7170000 -42.4030000  -1.7020000
  51.9440000 -43.2720000  -3.0440000  48.1040000 -41.9410000  -2.4370000
  47.4070000 -42.9220000  -2.6880000  47.6450000 -40.9110000  -1.7180000
  48.2770000 -40.1470000  -1.5270000  46.2780000 -40.8230000  -1.1840000
  46.1310000 -41.6440000  -0.4820000  46.1130000 -39.5170000  -0.4020000
  46.8660000 -39.4710000   0.3850000  46.2450000 -38.6670000  -1.0710000
  44.8280000 -39.4660000   0.1760000  44.6290000 -38.5570000   0.4130000
  45.1980000 -40.9760000  -2.2670000  44.3140000 -41.8300000  -2.1460000
  45.2990000 -40.2100000  -3.3610000  46.0360000 -39.5220000  -3.4060000
  44.4160000 -40.3540000  -4.5200000  43.3910000 -40.1930000  -4.1850000
  44.7310000 -39.2880000  -5.5780000  44.4730000 -38.3050000  -5.1840000
  45.8020000 -39.2950000  -5.7810000  43.9780000 -39.5130000  -6.8790000
  42.5700000 -39.4770000  -6.8920000  42.0270000 -39.2400000  -5.9890000
  41.8640000 -39.7780000  -8.0710000  40.7840000 -39.7580000  -8.0740000
  42.5630000 -40.0990000  -9.2470000  42.0210000 -40.3250000 -10.1530000
  43.9690000 -40.1340000  -9.2390000  44.5060000 -40.3900000 -10.1400000
  44.6760000 -39.8470000  -8.0570000  45.7550000 -39.8960000  -8.0530000
  44.4630000 -41.7650000  -5.1310000  43.4100000 -42.3400000  -5.3970000
  45.6510000 -42.3520000  -5.3140000  46.4870000 -41.8260000  -5.1030000
  45.8060000 -43.7130000  -5.8330000  45.3380000 -43.7380000  -6.8170000
  47.3030000 -44.0250000  -6.0130000  47.7310000 -43.2960000  -6.7010000
  47.8020000 -43.9090000  -5.0510000  47.6070000 -45.4410000  -6.5390000
  47.2070000 -46.1820000  -5.8470000  47.0160000 -45.6880000  -7.9280000
  47.3690000 -44.9290000  -8.6260000  47.3180000 -46.6730000  -8.2850000
  45.9270000 -45.6620000  -7.8840000  49.1190000 -45.6360000  -6.6220000
  49.5630000 -45.4950000  -5.6370000  49.3420000 -46.6480000  -6.9630000
  49.5530000 -44.9190000  -7.3190000  45.0780000 -44.7560000  -4.9640000
  44.3720000 -45.6070000  -5.5050000  45.1900000 -44.6710000  -3.6310000
  45.8250000 -43.9890000  -3.2410000  44.4030000 -45.5030000  -2.7070000
  44.6300000 -46.5490000  -2.9160000  44.7620000 -45.2330000  -1.2400000
  44.5100000 -44.2030000  -0.9860000  44.1800000 -45.8970000  -0.6010000
  46.1430000 -45.4430000  -0.9960000  46.3670000 -46.3400000  -1.2520000
  42.8900000 -45.3280000  -2.9070000  42.1760000 -46.3220000  -3.0290000
  42.3900000 -44.0870000  -2.9570000  43.0210000 -43.3040000  -2.8590000
  40.9750000 -43.8030000  -3.2170000  40.3810000 -44.2800000  -2.4370000
  40.7410000 -42.2910000  -3.1210000  41.2930000 -41.7700000  -3.9030000
  39.6780000 -42.0820000  -3.2430000  41.0640000 -41.9220000  -2.1470000
  40.4920000 -44.3750000  -4.5680000  39.4760000 -45.0680000  -4.6230000
  41.2410000 -44.1260000  -5.6470000  42.0550000 -43.5390000  -5.5260000
  40.9730000 -44.6360000  -6.9900000  39.9910000 -44.2720000  -7.2930000
  42.0290000 -44.0570000  -7.9500000  41.9920000 -42.9680000  -7.9010000
  43.0140000 -44.3720000  -7.6060000  41.8670000 -44.4950000  -9.4160000
  41.8790000 -45.5830000  -9.4780000  40.5690000 -43.9760000 -10.0360000
  40.5170000 -42.8910000  -9.9450000  40.5290000 -44.2500000 -11.0900000
  39.7100000 -44.4240000  -9.5350000  43.0380000 -43.9650000 -10.2430000
  43.9760000 -44.3490000  -9.8400000  42.9400000 -44.2980000 -11.2760000
  43.0540000 -42.8750000 -10.2150000  40.9230000 -46.1750000  -7.0330000
  39.9940000 -46.7460000  -7.6080000  41.8950000 -46.8500000  -6.4090000
  42.6490000 -46.3310000  -5.9830000  41.8610000 -48.3020000  -6.2140000
  41.8270000 -48.7710000  -7.1980000  43.1380000 -48.8030000  -5.5140000
  44.0010000 -48.5250000  -6.1180000  43.2250000 -48.3370000  -4.5320000
  43.1020000 -50.3320000  -5.3480000  42.2380000 -50.6010000  -4.7400000
  42.9710000 -50.7830000  -6.3320000  44.3490000 -50.9430000  -4.6830000
  44.2640000 -52.1360000  -4.2970000  45.4040000 -50.2760000  -4.5530000
  40.5950000 -48.7530000  -5.4710000  39.9170000 -49.6660000  -5.9350000
  40.2580000 -48.1270000  -4.3390000  40.8550000 -47.3840000  -4.0060000
  39.0440000 -48.4260000  -3.5700000  39.1400000 -49.4460000  -3.1970000
  38.9500000 -47.4930000  -2.3530000  39.9480000 -47.4040000  -1.9230000
  38.6280000 -46.4980000  -2.6590000  38.0340000 -48.0070000  -1.2370000
  38.3650000 -49.0080000  -0.9590000  38.1730000 -47.3600000  -0.3710000
  36.5320000 -48.0220000  -1.5730000  35.8680000 -49.0290000  -1.2310000
  35.9980000 -47.0200000  -2.1030000  37.7780000 -48.3840000  -4.4400000
  37.0140000 -49.3530000  -4.4410000  37.5860000 -47.3170000  -5.2280000
  38.2410000 -46.5510000  -5.1590000  36.4740000 -47.1950000  -6.1770000
  35.5420000 -47.2000000  -5.6130000  36.5600000 -45.8670000  -6.9550000
  37.4110000 -45.9270000  -7.6350000  35.6660000 -45.7850000  -7.5730000
  36.6890000 -44.5700000  -6.1630000  36.1870000 -44.4470000  -4.8480000
  35.7100000 -45.2860000  -4.3630000  36.3090000 -43.2300000  -4.1500000
  35.9270000 -43.1460000  -3.1440000  36.9310000 -42.1220000  -4.7680000
  37.0550000 -40.9430000  -4.0980000  36.6390000 -40.9800000  -3.2340000
  37.4230000 -42.2370000  -6.0850000  37.8910000 -41.3840000  -6.5550000
  37.2950000 -43.4550000  -6.7800000  37.6630000 -43.5330000  -7.7920000
  36.4190000 -48.3850000  -7.1560000  35.3700000 -49.0150000  -7.3110000
  37.5520000 -48.7300000  -7.7820000  38.3710000 -48.1620000  -7.6190000
  37.6950000 -49.8960000  -8.6740000  36.9790000 -49.7880000  -9.4890000
  39.1000000 -49.9350000  -9.3040000  39.8530000 -49.9000000  -8.5160000
  39.3530000 -51.1730000 -10.1660000  38.5680000 -51.2730000 -10.9160000
  40.3180000 -51.0860000 -10.6640000  39.3740000 -52.0680000  -9.5450000
  39.2650000 -48.8160000 -10.1480000  40.1850000 -48.7920000 -10.4220000
  37.3650000 -51.2190000  -7.9740000  36.5510000 -51.9930000  -8.4750000
  37.9660000 -51.4900000  -6.8080000  38.6100000 -50.8030000  -6.4420000
  37.7440000 -52.7170000  -6.0200000  37.9520000 -53.5800000  -6.6530000
  38.7050000 -52.7430000  -4.8110000  38.6040000 -51.8070000  -4.2620000
  38.4120000 -53.5490000  -4.1380000  40.1930000 -52.9360000  -5.1780000
  40.4770000 -52.2290000  -5.9570000  40.7900000 -52.7230000  -4.2910000
  40.5120000 -54.3630000  -5.6550000  40.2610000 -55.0760000  -4.8700000
  39.8950000 -54.5930000  -6.5240000  41.9790000 -54.5580000  -6.0750000
  42.0520000 -55.5330000  -6.5560000  42.2440000 -53.8070000  -6.8190000
  42.9320000 -54.5130000  -4.9320000  42.6060000 -55.0580000  -4.1460000
  43.8300000 -54.8870000  -5.2050000  43.1210000 -53.5710000  -4.6210000
  36.2780000 -52.8650000  -5.5870000  35.6970000 -53.9350000  -5.7620000
  35.6460000 -51.7850000  -5.1150000  36.1900000 -50.9440000  -4.9890000
  34.2130000 -51.7490000  -4.7750000  34.0170000 -52.5360000  -4.0480000
  33.8850000 -50.4010000  -4.1160000  34.5820000 -50.2570000  -3.2900000
  34.0450000 -49.5890000  -4.8260000  32.4360000 -50.3350000  -3.5960000
  31.7890000 -50.0640000  -4.4300000  32.1200000 -51.3130000  -3.2340000
  32.2610000 -49.3000000  -2.4700000  32.9590000 -48.4750000  -2.6140000
  31.2540000 -48.8900000  -2.5400000  32.4260000 -49.8830000  -1.0530000
  32.3680000 -49.0580000  -0.3420000  31.5940000 -50.5590000  -0.8550000
  33.7050000 -50.6080000  -0.8750000  34.4930000 -50.0330000  -1.1350000
  33.8570000 -50.9310000   0.0700000  33.7090000 -51.4490000  -1.4340000
  33.3170000 -52.0460000  -5.9810000  32.4320000 -52.8970000  -5.8870000
  33.5870000 -51.4170000  -7.1290000  34.3040000 -50.7060000  -7.1300000
  32.8920000 -51.7020000  -8.3880000  31.8270000 -51.5370000  -8.2200000
  33.3680000 -50.7020000  -9.4570000  33.1800000 -49.6900000  -9.0960000
  34.4440000 -50.8150000  -9.5830000  32.7050000 -50.8640000 -10.8380000
  32.9020000 -51.8650000 -11.2220000  31.1940000 -50.6350000 -10.7950000
  30.9740000 -49.6560000 -10.3700000  30.7850000 -50.6880000 -11.8040000
  30.7140000 -51.4060000 -10.1930000  33.3130000 -49.8540000 -11.8100000
  34.3880000 -50.0180000 -11.8840000  32.8730000 -49.9830000 -12.7990000
  33.1270000 -48.8380000 -11.4630000  33.0570000 -53.1710000  -8.8290000
  32.0880000 -53.7970000  -9.2570000  34.2590000 -53.7410000  -8.6850000
  35.0270000 -53.1560000  -8.3910000  34.5460000 -55.1520000  -8.9680000
  34.2280000 -55.3570000  -9.9900000  36.0670000 -55.3660000  -8.8960000
  36.5700000 -54.6520000  -9.5480000  36.4180000 -55.2020000  -7.8770000
  36.4700000 -56.7710000  -9.3110000  36.6910000 -57.6510000  -8.4910000
  36.5770000 -57.0290000 -10.5960000  36.8500000 -57.9590000 -10.8800000
  36.4090000 -56.3040000 -11.2790000  33.7700000 -56.1370000  -8.0590000
  33.3720000 -57.2080000  -8.5240000  33.5310000 -55.7880000  -6.7870000
  33.9640000 -54.9460000  -6.4360000  32.7460000 -56.6060000  -5.8380000
  33.1800000 -57.6050000  -5.8160000  32.8540000 -56.0350000  -4.4050000
  32.6240000 -54.9690000  -4.4190000  31.9270000 -56.7060000  -3.3900000
  32.0170000 -57.7900000  -3.4610000  32.1820000 -56.3940000  -2.3780000
  30.8970000 -56.4080000  -3.5820000  34.1650000 -56.2110000  -3.9160000
  34.2020000 -55.7840000  -3.0570000  31.2710000 -56.7880000  -6.2500000
  30.6950000 -57.8470000  -5.9780000  30.6580000 -55.7980000  -6.9180000
  31.2050000 -54.9810000  -7.1530000  29.2490000 -55.8270000  -7.3620000
  28.6220000 -56.0000000  -6.4870000  28.8450000 -54.4720000  -7.9660000
  29.5130000 -54.2320000  -8.7920000  27.8350000 -54.5630000  -8.3660000
  28.8670000 -53.3270000  -6.9370000  28.0920000 -53.5150000  -6.1950000
  29.8310000 -53.3060000  -6.4280000  28.6230000 -51.9480000  -7.5630000
  29.3760000 -51.0020000  -7.3670000  27.5820000 -51.7690000  -8.3530000
  27.4430000 -50.8560000  -8.7610000  26.9410000 -52.5280000  -8.5360000
  28.9360000 -56.9740000  -8.3450000  27.9010000 -57.6530000  -8.1530000
  29.7050000 -57.2040000  -9.3070000 -27.2050000 -14.9820000   1.8750000
 -28.1750000 -15.0570000   2.3720000 -26.8800000 -15.9870000   1.5940000
 -27.3260000 -14.3930000   0.9630000 -26.1770000 -14.3240000   2.8090000
 -26.0650000 -14.9520000   3.6950000 -26.5520000 -13.3540000   3.1390000
 -24.8160000 -14.1350000   2.1110000 -24.9500000 -13.4780000   1.2490000
 -24.4730000 -15.0990000   1.7280000 -23.7220000 -13.5370000   3.0150000
 -24.0340000 -12.5490000   3.3600000 -22.8130000 -13.4030000   2.4260000
 -23.4180000 -14.4260000   4.2310000 -23.2660000 -15.4530000   3.8930000
 -24.2830000 -14.4230000   4.8980000 -22.1780000 -13.9850000   5.0260000
 -22.2360000 -12.9150000   5.2360000 -21.2780000 -14.1610000   4.4320000
 -22.0940000 -14.7540000   6.3550000 -22.0970000 -15.8290000   6.1600000
 -22.9920000 -14.5280000   6.9340000 -20.8520000 -14.3990000   7.1890000
 -20.7090000 -13.3160000   7.1920000 -19.9690000 -14.8480000   6.7300000
 -20.9990000 -14.8860000   8.6420000 -21.2840000 -15.9400000   8.6510000
 -21.8070000 -14.3270000   9.1180000 -19.7070000 -14.7080000   9.4570000
 -19.3000000 -13.7100000   9.2840000 -18.9680000 -15.4330000   9.1120000
 -19.9570000 -14.8920000  10.9640000 -20.4390000 -15.8560000  11.1410000
 -20.6510000 -14.1140000  11.2880000 -18.6570000 -14.8180000  11.7910000
 -18.0930000 -13.9250000  11.5120000 -18.0310000 -15.6750000  11.5350000
 -18.9020000 -14.8270000  13.3150000 -17.9360000 -14.8370000  13.8240000
 -19.4090000 -15.7560000  13.5820000 -19.7340000 -13.6400000  13.8470000
 -19.8740000 -13.7650000  14.9220000 -20.7300000 -13.6610000  13.3990000
 -19.0820000 -12.2660000  13.5880000 -18.8150000 -12.1620000  12.5340000
 -18.1710000 -12.1690000  14.1820000 -20.0270000 -11.1450000  13.9340000
 -20.6680000 -10.5380000  13.0910000 -20.0560000 -10.8790000  15.2580000
 -21.1210000 -10.0220000  15.7700000 -21.3630000  -9.2360000  15.0500000
 -20.7550000  -9.5340000  16.6770000 -22.4030000 -10.8300000  16.1280000
 -23.2040000 -10.1040000  16.2950000 -22.2220000 -11.6710000  17.4230000
 -23.2080000 -11.8310000  17.8670000 -21.6160000 -11.1200000  18.1460000
 -21.6170000 -12.9720000  17.1770000 -21.5310000 -14.0660000  18.3600000
 -23.0810000 -14.4090000  18.6220000 -23.8140000 -15.2590000  17.7220000
 -23.7060000 -16.3010000  18.0330000 -23.3990000 -15.1530000  16.7160000
 -25.2990000 -14.8220000  17.6910000 -25.8310000 -15.4620000  16.9850000
 -25.3640000 -13.7930000  17.3340000 -26.0960000 -14.8680000  18.9750000
 -25.9230000 -16.1740000  19.6800000 -26.2080000 -16.9800000  19.0030000
 -26.5590000 -16.1780000  20.5650000 -24.8750000 -16.2700000  19.9700000
 -25.7070000 -13.7610000  19.8970000 -25.8540000 -12.8120000  19.3810000
 -24.6560000 -13.8880000  20.1620000 -26.3330000 -13.8120000  20.7890000
 -27.5430000 -14.6980000  18.6510000 -27.6840000 -13.7380000  18.1530000
 -28.1110000 -14.7160000  19.5830000 -27.8600000 -15.5150000  18.0010000
 -20.8540000 -15.2870000  17.8400000 -20.9870000 -13.4140000  19.5840000
 -22.7600000 -11.6760000  14.9960000 -23.9810000 -12.2310000  14.9360000
 -24.8520000 -12.0670000  15.7730000 -24.1560000 -13.0650000  13.6870000
 -24.7630000 -12.4990000  12.9780000 -23.1800000 -13.2180000  13.2220000
 -24.8100000 -14.4340000  13.9700000 -24.1050000 -15.0700000  14.5090000
 -25.6830000 -14.2980000  14.6120000 -25.2700000 -15.1500000  12.6850000
 -25.7610000 -16.0850000  12.9630000 -26.0190000 -14.5270000  12.1920000
 -24.1230000 -15.4580000  11.7020000 -23.6260000 -14.5330000  11.4020000
 -23.3740000 -16.0690000  12.2120000 -24.5920000 -16.2100000  10.4400000
 -23.7200000 -16.4150000   9.8150000 -25.0020000 -17.1780000  10.7360000
 -25.6450000 -15.4670000   9.5910000 -25.8650000 -16.0740000   8.7100000
 -26.5770000 -15.3750000  10.1530000 -25.1900000 -14.0710000   9.1280000
 -25.0870000 -13.4190000   9.9980000 -24.2080000 -14.1630000   8.6590000
 -26.1690000 -13.4780000   8.1350000 -26.8650000 -14.1840000   7.6900000
 -26.2340000 -12.1950000   7.7920000 -26.9780000 -11.8740000   7.0680000
 -25.3250000 -11.0990000   8.3120000 -25.9080000 -10.1940000   8.4960000
 -24.8820000 -11.3850000   9.2680000 -24.1900000 -10.7840000   7.3190000
 -23.4740000 -10.1220000   7.8110000 -23.6590000 -11.7080000   7.0790000
 -24.6680000 -10.1110000   6.0170000 -25.4110000 -10.7440000   5.5280000
 -25.1490000  -9.1610000   6.2610000 -23.4920000  -9.8600000   5.0530000
 -22.6810000  -9.3740000   5.5990000 -23.1090000 -10.8200000   4.7020000
 -23.8440000  -8.9840000   3.8360000 -24.0580000  -7.9690000   4.1770000
 -22.9630000  -8.9260000   3.1940000 -25.0370000  -9.4980000   3.0090000
 -24.8820000 -10.5490000   2.7540000 -25.9480000  -9.4330000   3.6060000
 -25.2240000  -8.6910000   1.7110000 -25.2950000  -7.6270000   1.9420000
 -24.3490000  -8.8280000   1.0710000 -26.4820000  -9.1250000   0.9480000
 -26.5870000  -8.5530000   0.0240000 -27.3700000  -8.9610000   1.5620000
 -26.4270000 -10.1860000   0.6940000 -20.4120000  11.2550000  -1.5420000
 -20.4190000  11.2110000  -2.6330000 -21.3050000  11.7890000  -1.2100000
 -20.4510000  10.2350000  -1.1550000 -19.1430000  11.9630000  -1.0450000
 -19.0930000  12.9650000  -1.4760000 -18.2700000  11.4110000  -1.4000000
 -19.0960000  12.0630000   0.4910000 -19.2090000  11.0670000   0.9230000
 -19.9340000  12.6710000   0.8390000 -17.7750000  12.6800000   0.9800000
 -17.6360000  13.6530000   0.5050000 -16.9470000  12.0400000   0.6650000
 -17.7310000  12.8580000   2.5100000 -17.9540000  11.9060000   2.9960000
 -18.5050000  13.5700000   2.8060000 -16.3490000  13.3520000   2.9770000
 -16.0750000  14.2470000   2.4160000 -15.6110000  12.5830000   2.7360000
 -16.2580000  13.6830000   4.4760000 -15.2060000  13.7760000   4.7530000
 -16.6830000  12.8680000   5.0660000 -16.9740000  15.0060000   4.7910000
 -18.0330000  14.9130000   4.5380000 -16.5550000  15.7930000   4.1600000
 -16.8560000  15.4310000   6.2620000 -15.8050000  15.5400000   6.5360000
 -17.2860000  14.6460000   6.8870000 -17.5940000  16.7640000   6.4910000
 -18.6230000  16.6670000   6.1370000 -17.1170000  17.5410000   5.8910000
 -17.6250000  17.2240000   7.9570000 -18.2030000  18.1490000   8.0170000
 -16.6090000  17.4490000   8.2880000 -18.2440000  16.1720000   8.8910000
 -17.5330000  15.3540000   9.0280000 -19.1410000  15.7550000   8.4280000
 -18.6180000  16.7540000  10.2610000 -19.4440000  17.4590000  10.1460000
 -17.7670000  17.3010000  10.6700000 -19.0070000  15.6470000  11.2480000
 -18.1540000  14.9770000  11.3730000 -19.8220000  15.0500000  10.8340000
 -19.4240000  16.2270000  12.6140000 -20.3530000  16.7920000  12.5120000
 -18.6590000  16.9230000  12.9660000 -19.6000000  15.1590000  13.6660000
 -19.5940000  13.9630000  13.4360000 -19.7210000  15.7010000  14.8950000
 -19.6730000  14.8220000  16.0600000 -19.9570000  13.7990000  15.8020000
 -20.3990000  15.1860000  16.7920000 -18.2630000  14.8570000  16.7100000
 -18.2130000  14.1060000  17.5020000 -18.0080000  16.2630000  17.3060000
 -18.8580000  16.5720000  17.9210000 -17.9030000  16.9720000  16.4810000
 -16.7950000  16.3070000  18.1090000 -16.8020000  15.9420000  19.6840000
 -17.6500000  17.1520000  20.3110000 -17.1290000  18.4920000  20.3220000
 -16.9420000  18.8210000  19.2970000 -16.1840000  18.5040000  20.8710000
 -18.1440000  19.4230000  21.0270000 -17.7320000  20.4330000  21.0420000
 -18.2690000  19.0950000  22.0600000 -19.5380000  19.5470000  20.4530000
 -20.3500000  18.3250000  20.7160000 -19.8740000  17.4760000  20.2230000
 -21.3510000  18.4870000  20.3140000 -20.3940000  18.1590000  21.7940000
 -20.2300000  20.6910000  21.1120000 -19.6710000  21.6060000  20.9100000
 -20.2810000  20.4990000  22.1850000 -21.2330000  20.7630000  20.6910000
 -19.5160000  19.8110000  18.9830000 -18.9300000  20.7130000  18.7980000
 -20.5470000  19.9560000  18.6580000 -19.0770000  18.9490000  18.4800000
 -17.5810000  14.6920000  19.8940000 -15.4060000  16.0170000  20.1960000
 -17.2280000  14.5950000  15.7180000 -17.1220000  13.3570000  15.1970000
 -17.7840000  12.4050000  15.5690000 -16.1040000  13.2550000  14.0790000
 -15.1510000  12.9170000  14.4900000 -16.4610000  12.4960000  13.3800000
 -15.8870000  14.5740000  13.3100000 -16.8490000  15.0610000  13.1350000
 -15.2950000  15.2520000  13.9270000 -15.1880000  14.3540000  11.9550000
 -14.2680000  13.7860000  12.1090000 -15.8310000  13.7600000  11.3020000
 -14.8500000  15.6900000  11.2690000 -15.7690000  16.2410000  11.0590000
 -14.2620000  16.2980000  11.9600000 -14.0530000  15.5070000   9.9640000
 -13.2580000  14.7770000  10.1250000 -14.7070000  15.1150000   9.1820000
 -13.4240000  16.8380000   9.5120000 -14.2140000  17.5500000   9.2650000
 -12.8530000  17.2570000  10.3430000 -12.4910000  16.6820000   8.3010000
 -11.7490000  15.9180000   8.5360000 -13.0710000  16.3320000   7.4440000
 -11.7810000  17.9940000   8.0250000 -11.3870000  18.4840000   8.9110000
 -11.6250000  18.5920000   6.8480000 -11.1020000  19.5450000   6.8120000
 -12.0820000  18.0770000   5.5020000 -11.1990000  17.8660000   4.8960000
 -12.6500000  17.1490000   5.6000000 -12.9390000  19.1120000   4.7550000
 -13.8510000  19.3000000   5.3250000 -12.3900000  20.0540000   4.6870000
 -13.2940000  18.6250000   3.3350000 -12.3670000  18.4010000   2.8030000
 -13.8560000  17.6900000   3.3980000 -14.0840000  19.6550000   2.5060000
 -13.5110000  20.5840000   2.4650000 -14.1660000  19.2920000   1.4790000
 -15.4990000  19.9690000   3.0330000 -15.4430000  20.3160000   4.0670000
 -15.8970000  20.7950000   2.4400000 -16.4760000  18.7800000   2.9340000
 -16.5580000  18.4750000   1.8880000 -16.0810000  17.9290000   3.4930000
 -17.8790000  19.1190000   3.4750000 -17.8180000  19.3210000   4.5460000
 -18.2530000  20.0270000   2.9970000 -18.8930000  17.9920000   3.2220000
 -19.8710000  18.2680000   3.6230000 -18.5720000  17.0660000   3.7020000
 -19.0000000  17.8080000   2.1510000  -4.6780000 -25.4300000   1.9810000
  -4.3520000 -25.9740000   1.0930000  -5.6950000 -25.0690000   1.8120000
  -4.6860000 -26.1200000   2.8280000  -3.7410000 -24.2450000   2.2540000
  -3.7600000 -23.5780000   1.3900000  -2.7200000 -24.6170000   2.3620000
  -4.1460000 -23.4510000   3.5080000  -4.1390000 -24.1120000   4.3770000
  -5.1730000 -23.1000000   3.3860000  -3.2390000 -22.2310000   3.7730000
  -3.6290000 -21.6850000   4.6340000  -3.3050000 -21.5520000   2.9200000
  -1.7520000 -22.5680000   4.0170000  -1.2220000 -21.6420000   4.2480000
  -1.3130000 -22.9570000   3.0960000  -1.4880000 -23.5840000   5.1470000
  -0.4100000 -23.7440000   5.2100000  -1.9380000 -24.5450000   4.8890000
  -2.0180000 -23.1180000   6.5170000  -3.0910000 -22.9290000   6.4480000
  -1.5410000 -22.1720000   6.7830000  -1.7890000 -24.1340000   7.6530000
  -2.3270000 -25.0580000   7.4290000  -2.2310000 -23.7150000   8.5590000
  -0.3010000 -24.4570000   7.8990000   0.2580000 -23.5240000   7.9920000
   0.1010000 -24.9860000   7.0320000  -0.0430000 -25.3180000   9.1530000
   1.0280000 -25.5210000   9.2170000  -0.5500000 -26.2790000   9.0450000
  -0.5030000 -24.6390000  10.4580000  -1.5920000 -24.5550000  10.4580000
  -0.0920000 -23.6280000  10.4940000  -0.0670000 -25.4090000  11.7190000
   1.0210000 -25.3800000  11.8090000  -0.3520000 -26.4570000  11.6100000
  -0.7100000 -24.8540000  13.0050000  -0.5070000 -25.5450000  13.8260000
  -1.7940000 -24.8190000  12.8760000  -0.1960000 -23.4560000  13.3970000
  -0.3120000 -22.7670000  12.5580000   0.8710000 -23.5270000  13.6200000
  -0.9490000 -22.8810000  14.6130000  -0.9190000 -23.5870000  15.4450000
  -1.9990000 -22.7350000  14.3510000  -0.3750000 -21.5640000  15.0850000
   0.7900000 -21.2340000  14.9520000  -1.2930000 -20.8010000  15.7020000
  -0.8520000 -19.5580000  16.3240000  -0.6110000 -18.8340000  15.5410000
   0.0540000 -19.7440000  16.9080000  -1.9340000 -18.9730000  17.2800000
  -1.6370000 -17.9560000  17.5520000  -2.0600000 -19.7790000  18.6020000
  -2.7800000 -19.2870000  19.2610000  -1.0870000 -19.7810000  19.1000000
  -2.4820000 -21.1570000  18.3860000  -2.2810000 -22.3020000  19.5090000
  -0.8480000 -22.9380000  19.1350000  -0.0420000 -23.5540000  20.1590000
  -0.6970000 -24.1240000  20.8230000   0.4580000 -22.7810000  20.7490000
   0.9750000 -24.5310000  19.5240000   0.4400000 -25.2900000  18.9510000
   1.5120000 -25.0380000  20.3280000   2.0350000 -23.9810000  18.6020000
   1.4550000 -23.5910000  17.2850000   0.9880000 -24.4740000  16.8460000
   2.2550000 -23.2170000  16.6440000   0.7100000 -22.8140000  17.4630000
   2.7310000 -22.8030000  19.2030000   3.1420000 -23.0990000  20.1690000
   2.0050000 -21.9980000  19.3250000   3.5310000 -22.4920000  18.5300000
   3.0510000 -25.0440000  18.3560000   3.5210000 -25.3060000  19.3050000
   3.7980000 -24.6650000  17.6570000   2.5410000 -25.9130000  17.9370000
  -2.1740000 -21.6460000  20.8440000  -3.3230000 -23.3460000  19.3100000
  -3.2330000 -18.9150000  16.6230000  -3.4090000 -18.0460000  15.6090000
  -2.6150000 -17.1680000  15.3160000  -4.6850000 -18.3100000  14.8500000
  -5.4220000 -18.7080000  15.5510000  -5.0760000 -17.3740000  14.4450000
  -4.4700000 -19.3390000  13.7250000  -3.9950000 -20.2300000  14.1390000
  -5.4450000 -19.6440000  13.3380000  -3.6240000 -18.7970000  12.5580000
  -4.1520000 -17.9630000  12.0910000  -2.6750000 -18.4150000  12.9410000
  -3.3400000 -19.8820000  11.5030000  -2.7220000 -20.6650000  11.9460000
  -4.2830000 -20.3480000  11.2080000  -2.6530000 -19.3330000  10.2370000
  -2.4780000 -20.1600000   9.5460000  -3.3420000 -18.6490000   9.7360000
  -1.3230000 -18.5890000  10.4840000  -0.9350000 -18.2620000   9.5170000
  -1.5160000 -17.6830000  11.0630000  -0.2270000 -19.4100000  11.1930000
   0.6760000 -18.8010000  11.2800000  -0.5430000 -19.6360000  12.2130000
   0.0840000 -20.7030000  10.4680000  -0.3390000 -21.5940000  10.9230000
   0.8220000 -20.8250000   9.3690000   0.9890000 -21.8130000   8.9490000
   1.4350000 -19.6850000   8.5860000   1.4360000 -18.7600000   9.1660000
   2.4740000 -19.9270000   8.3530000   0.6660000 -19.4670000   7.2700000
   0.7940000 -20.3470000   6.6370000  -0.3990000 -19.3780000   7.4910000
   1.1300000 -18.2040000   6.5180000   1.0360000 -17.3440000   7.1830000
   2.1860000 -18.2980000   6.2550000   0.3130000 -17.9320000   5.2410000
  -0.7520000 -17.9420000   5.4830000   0.5440000 -16.9290000   4.8770000
   0.5830000 -18.9480000   4.1170000   1.6360000 -18.9030000   3.8300000
   0.3790000 -19.9600000   4.4730000  -0.2970000 -18.6600000   2.8900000
  -1.3470000 -18.6710000   3.1910000  -0.0750000 -17.6590000   2.5160000
  -0.0900000 -19.6810000   1.7600000   0.9580000 -19.6810000   1.4500000
  -0.3260000 -20.6850000   2.1190000  -0.9790000 -19.3490000   0.5530000
  -0.7880000 -20.0460000  -0.2660000  -0.7680000 -18.3370000   0.2010000
  -2.0340000 -19.4130000   0.8250000 -12.5810000  24.8730000   1.5710000
 -13.6610000  24.8250000   1.4220000 -12.1710000  23.8680000   1.4500000
 -12.1520000  25.5190000   0.8020000 -12.2680000  25.4110000   2.9760000
 -12.7380000  24.7490000   3.7070000 -12.7120000  26.4010000   3.0960000
 -10.7530000  25.4980000   3.2410000 -10.3000000  26.1620000   2.5020000
 -10.3060000  24.5130000   3.0950000 -10.4010000  26.0230000   4.6490000
 -10.7330000  27.0600000   4.7300000  -9.3140000  26.0280000   4.7590000
 -11.0180000  25.2150000   5.8100000 -12.1060000  25.2920000   5.7570000
 -10.7190000  25.6750000   6.7540000 -10.5850000  23.7340000   5.8210000
  -9.5070000  23.6860000   5.9920000 -10.7760000  23.2770000   4.8480000
 -11.2990000  22.8910000   6.8950000 -11.1680000  23.3580000   7.8730000
 -10.8240000  21.9090000   6.9380000 -12.8000000  22.7050000   6.5990000
 -12.9190000  22.3000000   5.5920000 -13.3000000  23.6760000   6.6190000
 -13.4880000  21.7620000   7.6020000 -13.3740000  22.1590000   8.6130000
 -12.9910000  20.7900000   7.5740000 -14.9840000  21.5740000   7.2880000
 -15.0980000  21.3250000   6.2310000 -15.5120000  22.5150000   7.4580000
 -15.6450000  20.4630000   8.1240000 -15.1460000  19.5150000   7.9130000
 -16.6820000  20.3590000   7.7990000 -15.6190000  20.7260000   9.6430000
 -16.0770000  21.6960000   9.8470000 -14.5870000  20.7640000   9.9970000
 -16.3720000  19.6190000  10.4040000 -15.9100000  18.6580000  10.1700000
 -17.4030000  19.5760000  10.0450000 -16.3840000  19.7820000  11.9350000
 -15.3560000  19.8340000  12.3010000 -16.8380000  18.8920000  12.3750000
 -17.1670000  21.0250000  12.3960000 -18.1700000  21.0120000  11.9630000
 -16.6610000  21.9310000  12.0560000 -17.2870000  21.0810000  13.8970000
 -18.3390000  20.9490000  14.4980000 -16.1000000  21.2850000  14.4940000
 -16.0600000  21.4640000  15.9370000 -16.6170000  20.6590000  16.4240000
 -16.5170000  22.4240000  16.1900000 -14.5920000  21.4270000  16.4290000
 -14.1970000  20.4150000  16.3180000 -14.5040000  21.8040000  17.9250000
 -15.0640000  21.0820000  18.5250000 -14.9380000  22.7960000  18.0720000
 -13.1150000  21.8030000  18.3610000 -12.6610000  22.3790000  19.8010000
 -12.3280000  23.9200000  19.4890000 -13.3460000  24.9370000  19.5470000
 -13.5590000  25.1610000  20.5950000 -14.2670000  24.5820000  19.0770000
 -12.8350000  26.2080000  18.8270000 -11.9220000  26.5510000  19.3150000
 -13.5890000  26.9890000  18.9330000 -12.5210000  26.1270000  17.3490000
 -13.6400000  25.4980000  16.5810000 -13.7160000  24.4500000  16.8770000
 -13.4100000  25.5600000  15.5160000 -14.5650000  26.0300000  16.8040000
 -12.3190000  27.5130000  16.8290000 -11.4980000  27.9720000  17.3810000
 -13.2380000  28.0830000  16.9760000 -12.0740000  27.4590000  15.7680000
 -11.2670000  25.3560000  17.0950000 -10.4570000  25.8160000  17.6630000
 -11.0440000  25.3820000  16.0280000 -11.4210000  24.3290000  17.4290000
 -13.8180000  22.3120000  20.7360000 -11.3930000  21.7040000  20.1890000
 -13.8070000  22.3910000  15.6670000 -13.0540000  21.9350000  14.6440000
 -12.9270000  20.7570000  14.3460000 -12.3690000  23.0720000  13.9150000
 -13.1220000  23.8140000  13.6410000 -11.6710000  23.5500000  14.6060000
 -11.6140000  22.5950000  12.6540000 -10.9430000  21.7800000  12.9330000
 -12.3270000  22.1860000  11.9360000 -10.7620000  23.6850000  11.9760000
 -10.0010000  24.0280000  12.6790000 -10.2310000  23.2290000  11.1380000
 -11.5370000  24.9090000  11.4510000 -11.9250000  25.4900000  12.2900000
 -10.8300000  25.5500000  10.9200000 -12.6960000  24.5470000  10.5040000
 -12.3790000  23.7510000   9.8270000 -13.5350000  24.1670000  11.0910000
 -13.1490000  25.7570000   9.6690000 -13.2700000  26.6220000  10.3250000
 -12.3680000  26.0050000   8.9470000 -14.4730000  25.5090000   8.9270000
 -14.3860000  24.6060000   8.3190000 -15.2490000  25.3320000   9.6750000
 -14.8440000  26.7220000   8.0990000 -14.6350000  27.6730000   8.5830000
 -15.3570000  26.7300000   6.8720000 -15.5620000  27.6870000   6.3990000
 -15.7260000  25.5220000   6.0350000 -15.2220000  25.5880000   5.0690000
 -15.4000000  24.5910000   6.5050000 -17.2480000  25.4640000   5.8160000
 -17.7410000  25.4580000   6.7910000 -17.5790000  26.3640000   5.2940000
 -17.7130000  24.2170000   5.0410000 -17.3220000  23.3220000   5.5290000
 -18.8020000  24.1630000   5.1040000 -17.3030000  24.2160000   3.5550000
 -17.6690000  25.1270000   3.0780000 -16.2150000  24.2070000   3.4680000
 -17.8850000  22.9910000   2.8280000 -17.4960000  22.0870000   3.3010000
 -18.9690000  22.9800000   2.9610000 -17.5700000  22.9620000   1.3200000
 -17.8890000  23.9030000   0.8680000 -16.4910000  22.8770000   1.1710000
 -18.2860000  21.7920000   0.6170000 -17.9020000  20.8440000   0.9990000
 -19.3520000  21.8290000   0.8540000 -18.1190000  21.8060000  -0.9100000
 -18.7370000  21.0280000  -1.3630000 -17.0790000  21.6140000  -1.1800000
 -18.4210000  22.7710000  -1.3230000   5.3250000 -20.2500000  -0.0300000
   5.5990000 -20.1440000  -1.0810000   6.1150000 -19.8030000   0.5770000
   4.3960000 -19.7040000   0.1470000   5.1390000 -21.7310000   0.3230000
   6.1110000 -22.2280000   0.2750000   4.5050000 -22.1930000  -0.4370000
   4.5020000 -21.9860000   1.7040000   4.4220000 -23.0680000   1.8280000
   3.4820000 -21.5970000   1.7140000   5.2820000 -21.4260000   2.9120000
   6.3560000 -21.4780000   2.7180000   5.0800000 -22.0860000   3.7580000
   4.8810000 -19.9870000   3.3090000   3.8030000 -19.9540000   3.4780000
   5.0940000 -19.3010000   2.4860000   5.5930000 -19.4590000   4.5720000
   5.2590000 -18.4340000   4.7460000   6.6710000 -19.4210000   4.3960000
   5.3070000 -20.3130000   5.8230000   5.7620000 -21.2970000   5.6940000
   4.2300000 -20.4690000   5.9130000   5.8340000 -19.7140000   7.1410000
   6.9030000 -19.5090000   7.0580000   5.7080000 -20.4730000   7.9160000
   5.0850000 -18.4290000   7.5460000   4.0120000 -18.6030000   7.4420000
   5.3430000 -17.6230000   6.8570000   5.3500000 -17.9510000   8.9860000
   4.6950000 -17.0960000   9.1700000   6.3810000 -17.6020000   9.0780000
   5.0730000 -19.0220000  10.0580000   5.8800000 -19.7570000  10.0470000
   4.1470000 -19.5450000   9.8070000   4.9440000 -18.4320000  11.4750000
   4.0520000 -17.8040000  11.5260000   5.8050000 -17.7890000  11.6720000
   4.8760000 -19.5120000  12.5720000   4.8240000 -19.0230000  13.5470000
   5.8080000 -20.0810000  12.5490000   3.6910000 -20.4920000  12.4380000
   3.6940000 -20.9590000  11.4510000   2.7570000 -19.9330000  12.5260000
   3.7170000 -21.6010000  13.5120000   3.7010000 -21.1440000  14.5040000
   2.8180000 -22.2150000  13.4250000   4.9200000 -22.5140000  13.4100000
   5.5110000 -22.7570000  12.3700000   5.2460000 -23.0460000  14.6080000
   6.4880000 -23.8080000  14.7250000   6.7730000 -24.2610000  13.7730000
   6.3130000 -24.6210000  15.4340000   7.6460000 -22.9260000  15.2640000
   8.5660000 -23.5130000  15.2060000   7.3830000 -22.5050000  16.7280000
   7.0690000 -23.3750000  17.3120000   6.5830000 -21.7600000  16.7510000
   8.5850000 -21.9490000  17.3300000   8.5440000 -21.2470000  18.7840000
   8.1180000 -19.7340000  18.4370000   9.1100000 -18.6970000  18.3130000
   9.8870000 -19.0290000  17.6210000   9.5660000 -18.5160000  19.2900000
   8.4570000 -17.4030000  17.7710000   8.1370000 -17.5590000  16.7400000
   9.2110000 -16.6150000  17.7780000   7.2580000 -16.8410000  18.4970000
   6.0220000 -17.6230000  18.1850000   5.8680000 -17.6250000  17.1050000
   5.1740000 -17.1590000  18.6900000   6.1610000 -18.6440000  18.5440000
   7.4710000 -16.8200000  19.9740000   8.3690000 -16.2360000  20.1810000
   7.5920000 -17.8490000  20.3160000   6.6000000 -16.3630000  20.4460000
   7.0290000 -15.4410000  18.0380000   7.9030000 -14.8490000  18.3140000
   6.1430000 -15.0510000  18.5420000   6.8840000 -15.4420000  16.9570000
   7.4550000 -21.8560000  19.5960000   9.9270000 -21.2490000  19.3360000
   7.7350000 -21.7200000  14.4510000   8.9370000 -21.1970000  14.1510000
  10.0090000 -21.7260000  14.3880000   8.8000000 -19.8710000  13.4420000
   9.6490000 -19.7250000  12.7710000   7.8970000 -19.8920000  12.8290000
   8.7220000 -18.7150000  14.4570000   8.1240000 -19.0390000  15.3110000
   9.7260000 -18.5010000  14.8280000   8.0920000 -17.4210000  13.8990000
   7.0140000 -17.5660000  13.8000000   8.2400000 -16.6210000  14.6270000
   8.6580000 -16.9780000  12.5380000   9.7480000 -16.9590000  12.5900000
   8.3790000 -17.7100000  11.7760000   8.1260000 -15.5930000  12.1190000
   7.0370000 -15.5960000  12.1910000   8.4920000 -14.8340000  12.8140000
   8.5170000 -15.2040000  10.6810000   8.1650000 -15.9830000  10.0010000
   7.9970000 -14.2830000  10.4090000  10.0290000 -14.9930000  10.4710000
  10.3520000 -14.1070000  11.0220000  10.5850000 -15.8400000  10.8790000
  10.3360000 -14.8190000   8.9990000  10.2290000 -13.8070000   8.6160000
  10.6760000 -15.8010000   8.1700000  10.8560000 -15.5750000   7.1220000
  10.8990000 -17.2470000   8.5730000  11.3970000 -17.2940000   9.5440000
   9.9400000 -17.7610000   8.6710000  11.7760000 -17.9950000   7.5510000
  12.6820000 -17.4100000   7.3790000  12.1000000 -18.9440000   7.9840000
  11.0880000 -18.2570000   6.1940000  10.7240000 -17.3120000   5.7850000
  11.8450000 -18.6250000   5.4990000   9.9230000 -19.2730000   6.2190000
   9.1340000 -18.9130000   6.8820000   9.4990000 -19.3180000   5.2140000
  10.3590000 -20.6890000   6.6550000  11.2280000 -20.9950000   6.0680000
  10.6750000 -20.6570000   7.7000000   9.2690000 -21.7720000   6.5170000
   9.6600000 -22.7000000   6.9390000   8.3970000 -21.4920000   7.1120000
   8.8360000 -22.0390000   5.0610000   8.3250000 -21.1600000   4.6640000
   9.7210000 -22.2140000   4.4460000   7.9070000 -23.2570000   4.9320000
   7.6050000 -23.3930000   3.8920000   7.0090000 -23.1270000   5.5410000
   8.4170000 -24.1640000   5.2620000  -5.9680000  29.3730000  -4.2140000
  -6.0730000  29.3330000  -5.3000000  -5.0060000  28.9280000  -3.9480000
  -5.9690000  30.4210000  -3.9090000  -7.1270000  28.6150000  -3.5490000
  -7.1170000  27.5870000  -3.9160000  -8.0690000  29.0680000  -3.8630000
  -7.0750000  28.5900000  -2.0110000  -7.9990000  28.1430000  -1.6400000
  -7.0300000  29.6130000  -1.6310000  -5.8870000  27.7750000  -1.4720000
  -4.9530000  28.2840000  -1.7190000  -5.8670000  26.8030000  -1.9710000
  -5.9470000  27.5350000   0.0470000  -5.0770000  26.9410000   0.3320000
  -6.8350000  26.9460000   0.2890000  -5.9670000  28.8350000   0.8680000
  -6.9300000  29.3380000   0.7580000  -5.2060000  29.5100000   0.4710000
  -5.6710000  28.5870000   2.3580000  -5.3830000  29.5400000   2.8070000
  -4.8070000  27.9240000   2.4420000  -6.8450000  28.0010000   3.1660000
  -7.2500000  27.1300000   2.6470000  -7.6460000  28.7400000   3.2250000
  -6.4250000  27.5770000   4.5910000  -5.8080000  26.6790000   4.5120000
  -7.3160000  27.2990000   5.1580000  -5.6270000  28.6390000   5.3800000
  -4.7210000  28.8980000   4.8290000  -5.2950000  28.1960000   6.3210000
  -6.4210000  29.9210000   5.7020000  -7.1650000  29.6880000   6.4660000
  -6.9590000  30.2650000   4.8160000  -5.4910000  31.0520000   6.1820000
  -4.9010000  31.3950000   5.3290000  -4.7800000  30.6610000   6.9120000
  -6.2370000  32.2640000   6.7800000  -6.9950000  32.6040000   6.0710000
  -5.5260000  33.0840000   6.8980000  -6.9050000  31.9970000   8.1470000
  -7.6730000  31.2290000   8.0410000  -7.4080000  32.9110000   8.4690000
  -5.8990000  31.5800000   9.2410000  -5.0880000  32.3100000   9.2840000
  -5.4520000  30.6120000   9.0020000  -6.5260000  31.4770000  10.6130000
  -7.7060000  31.2560000  10.8260000  -5.6120000  31.6640000  11.5890000
  -6.0250000  31.5150000  12.9800000  -6.9670000  32.0450000  13.1420000
  -5.2600000  31.9750000  13.6110000  -6.1670000  30.0200000  13.3800000
  -6.9700000  29.5500000  12.8070000  -6.5130000  29.8880000  14.8810000
  -7.4530000  30.4010000  15.1010000  -5.7140000  30.3450000  15.4700000
  -6.6410000  28.4890000  15.2600000  -6.5880000  28.0360000  16.8080000
  -5.0170000  28.1170000  17.1480000  -4.4860000  27.5450000  18.3620000
  -3.4330000  27.2990000  18.2030000  -5.0170000  26.6180000  18.5930000
  -4.6270000  28.5460000  19.5350000  -4.3490000  28.0400000  20.4600000
  -5.6710000  28.8520000  19.6170000  -3.8160000  29.8200000  19.5010000
  -4.2070000  30.7000000  18.3590000  -3.9670000  30.1800000  17.4300000
  -3.6520000  31.6360000  18.4280000  -5.2810000  30.8800000  18.4180000
  -4.0650000  30.5740000  20.7650000  -3.7610000  29.9520000  21.6090000
  -5.1290000  30.8050000  20.8280000  -3.4790000  31.4940000  20.7450000
  -2.3530000  29.5290000  19.4140000  -2.0740000  28.8850000  20.2500000
  -1.8070000  30.4720000  19.4660000  -2.1500000  29.0310000  18.4650000
  -7.3040000  29.0480000  17.6310000  -7.0210000  26.6130000  16.8820000
  -4.9010000  29.3370000  13.1620000  -4.6930000  28.6860000  12.0010000
  -5.5010000  28.6190000  11.0890000  -3.3320000  28.0390000  11.9420000
  -3.2450000  27.3350000  12.7730000  -3.2530000  27.4720000  11.0120000
  -2.1990000  29.0820000  12.0300000  -2.2950000  29.8150000  11.2260000
  -2.2990000  29.6330000  12.9680000  -0.7980000  28.4440000  12.0040000
  -0.0570000  29.2240000  12.1910000  -0.7310000  27.7410000  12.8360000
  -0.4080000  27.6990000  10.7090000   0.5420000  27.1970000  10.9050000
  -1.1290000  26.9120000  10.4810000  -0.2030000  28.6110000   9.4820000
   0.1770000  29.5820000   9.8070000   0.5750000  28.1550000   8.8660000
  -1.4500000  28.8000000   8.5920000  -1.7370000  27.8330000   8.1730000
  -2.2920000  29.1500000   9.1930000  -1.2220000  29.8020000   7.4410000
  -2.1410000  29.8980000   6.8600000  -1.0220000  30.7880000   7.8660000
  -0.0600000  29.4030000   6.5510000   0.9080000  29.7850000   6.8650000
  -0.1330000  28.6650000   5.4480000   0.7780000  28.4520000   4.8950000
  -1.3860000  28.0270000   4.8840000  -1.2710000  26.9410000   4.9190000
  -2.2700000  28.2700000   5.4770000  -1.6330000  28.4260000   3.4170000
  -0.7820000  28.1040000   2.8130000  -2.5080000  27.8790000   3.0600000
  -1.8710000  29.9390000   3.2150000  -2.5990000  30.2810000   3.9530000
  -0.9450000  30.4890000   3.3940000  -2.4130000  30.2760000   1.8120000
  -3.3410000  29.7200000   1.6640000  -2.6710000  31.3370000   1.7800000
  -1.4570000  29.9430000   0.6490000  -0.6040000  30.6250000   0.6710000
  -1.0690000  28.9300000   0.7720000  -2.1430000  30.0180000  -0.7280000
  -1.4440000  29.6590000  -1.4870000  -2.9980000  29.3390000  -0.7370000
  -2.6100000  31.4330000  -1.1150000  -3.3040000  31.8180000  -0.3640000
  -1.7460000  32.1010000  -1.1460000  -3.3060000  31.4480000  -2.4820000
  -3.5860000  32.4680000  -2.7550000  -4.2100000  30.8360000  -2.4500000
  -2.6410000  31.0500000  -3.2520000  33.7020000 -40.2900000  -1.4980000
  34.1500000 -41.1620000  -1.9790000  33.7000000 -39.4650000  -2.2130000
  32.6680000 -40.5330000  -1.2420000  34.4920000 -39.9130000  -0.2350000
  35.5320000 -39.7260000  -0.5120000  34.4870000 -40.7570000   0.4580000
  33.9270000 -38.6690000   0.4750000  32.8830000 -38.8390000   0.7430000
  33.9600000 -37.8190000  -0.2100000  34.7300000 -38.3330000   1.7440000
  35.7910000 -38.3070000   1.4870000  34.5940000 -39.1260000   2.4820000
  34.3400000 -36.9750000   2.3550000  33.2790000 -36.9660000   2.6150000
  34.4930000 -36.2000000   1.6020000  35.1820000 -36.6520000   3.6050000
  36.2150000 -36.9540000   3.4220000  34.8210000 -37.2370000   4.4530000
  35.1640000 -35.1500000   3.9480000  34.1690000 -34.8520000   4.2840000
  35.3840000 -34.5820000   3.0410000  36.2170000 -34.7770000   5.0060000
  36.3630000 -33.6940000   4.9890000  37.1760000 -35.2250000   4.7360000
  35.8440000 -35.1910000   6.4400000  35.5350000 -36.2380000   6.4680000
  34.9920000 -34.5880000   6.7610000  37.0400000 -34.9950000   7.3930000
  37.5950000 -34.1000000   7.1030000  37.7210000 -35.8400000   7.2780000
  36.6500000 -34.8610000   8.8750000  37.5630000 -34.8910000   9.4740000
  36.0320000 -35.7100000   9.1750000  35.9090000 -33.5380000   9.1540000
  34.8940000 -33.5930000   8.7540000  36.4230000 -32.7290000   8.6300000
  35.8460000 -33.1750000  10.6460000  35.4660000 -32.1560000  10.7450000
  36.8570000 -33.1840000  11.0580000  34.9560000 -34.1190000  11.4680000
  35.2720000 -35.1530000  11.3120000  33.9220000 -34.0280000  11.1280000
  35.0540000 -33.7740000  12.9650000  34.8270000 -32.7160000  13.1150000
  36.0820000 -33.9280000  13.3020000  34.1440000 -34.5980000  13.8410000
  33.2580000 -35.3320000  13.4400000  34.4550000 -34.4350000  15.1420000
  33.9910000 -35.4200000  16.1100000  33.0450000 -35.8740000  15.8030000
  33.8250000 -34.9040000  17.0590000  35.0820000 -36.5050000  16.3300000
  34.7410000 -37.2120000  17.0910000  36.3980000 -35.8560000  16.8200000
  36.1740000 -35.0070000  17.4710000  36.9640000 -35.4980000  15.9570000
  37.1870000 -36.8230000  17.5670000  38.7010000 -36.5140000  18.0450000
  38.5070000 -35.5240000  19.3010000  38.5450000 -34.0900000  19.1440000
  37.7870000 -33.7640000  18.4270000  39.5280000 -33.8050000  18.7610000
  38.3270000 -33.4200000  20.5190000  38.4830000 -32.3460000  20.4080000
  39.0670000 -33.8000000  21.2250000  36.9820000 -33.5610000  21.1920000
  36.7050000 -34.9710000  21.5990000  36.6740000 -35.5900000  20.7010000
  35.7470000 -35.0050000  22.1200000  37.5110000 -35.3050000  22.2540000
  36.9820000 -32.7270000  22.4270000  37.1540000 -31.6910000  22.1320000
  37.7810000 -33.0730000  23.0850000  36.0130000 -32.8250000  22.9180000
  35.8810000 -33.0750000  20.3100000  36.1000000 -32.0430000  20.0340000
  34.9410000 -33.1240000  20.8610000  35.8320000 -33.7080000  19.4230000
  39.2830000 -37.7850000  18.5570000  39.4160000 -35.7930000  16.9570000
  35.3700000 -37.2040000  15.0840000  34.5730000 -38.2210000  14.7000000
  33.5880000 -38.5870000  15.3210000  35.0370000 -38.8580000  13.4110000
  36.1290000 -38.8490000  13.3930000  34.7100000 -39.8990000  13.3850000
  34.4780000 -38.0990000  12.1910000  33.3870000 -38.1260000  12.2270000
  34.7790000 -37.0520000  12.2630000  34.9420000 -38.6410000  10.8260000
  34.6720000 -39.6950000  10.7350000  34.4090000 -38.1010000  10.0410000
  36.4550000 -38.4930000  10.5900000  36.7500000 -37.4540000  10.7470000
  37.0010000 -39.1060000  11.3100000  36.8430000 -38.9240000   9.1660000
  36.5280000 -39.9570000   9.0010000  36.3180000 -38.2990000   8.4410000
  38.3580000 -38.8130000   8.9340000  38.6730000 -37.7790000   9.0920000
  38.8820000 -39.4340000   9.6630000  38.7560000 -39.2510000   7.5160000
  38.4370000 -40.2850000   7.3650000  38.2240000 -38.6400000   6.7840000
  40.2570000 -39.1610000   7.3380000  40.8380000 -39.8130000   7.9850000
  40.8880000 -38.3980000   6.4540000  41.9730000 -38.4300000   6.4050000
  40.2340000 -37.4040000   5.5200000  39.3820000 -36.9210000   6.0040000
  40.9480000 -36.6110000   5.2910000  39.7690000 -38.0730000   4.2130000
  40.5770000 -38.6830000   3.8040000  38.9320000 -38.7420000   4.4220000
  39.3460000 -37.0240000   3.1720000  38.5280000 -36.4300000   3.5860000
  40.1810000 -36.3450000   2.9900000  38.9010000 -37.6500000   1.8380000
  39.6630000 -38.3560000   1.5000000  37.9840000 -38.2200000   2.0000000
  38.6730000 -36.6080000   0.7250000  39.6310000 -36.1530000   0.4640000
  38.3080000 -37.1300000  -0.1620000  37.6870000 -35.4900000   1.1120000
  36.7380000 -35.9370000   1.4160000  38.0800000 -34.9390000   1.9690000
  37.4200000 -34.4800000  -0.0150000  36.8420000 -33.6500000   0.3970000
  38.3700000 -34.0740000  -0.3690000  36.6390000 -35.0730000  -1.1990000
  36.4430000 -34.3000000  -1.9450000  35.6820000 -35.4720000  -0.8570000
  37.2030000 -35.8760000  -1.6780000  22.0180000  45.5830000  -0.3030000
  23.1080000  45.5440000  -0.2670000  21.7210000  46.5480000  -0.7190000
  21.6650000  44.7940000  -0.9700000  21.4340000  45.4020000   1.1080000
  21.8150000  46.1970000   1.7530000  21.7810000  44.4490000   1.5120000
  19.8940000  45.4290000   1.1120000  19.5260000  44.5350000   0.6040000
  19.5520000  46.2930000   0.5390000  19.2670000  45.5080000   2.5180000
  18.1840000  45.5990000   2.4070000  19.6170000  46.4170000   3.0120000
  19.5740000  44.2930000   3.4140000  20.6560000  44.1970000   3.5300000
  19.2150000  43.3850000   2.9260000  18.9230000  44.4170000   4.8080000
  17.8450000  44.5390000   4.6790000  19.2850000  45.3200000   5.3040000
  19.1740000  43.1890000   5.7080000  18.8830000  42.2920000   5.1570000
  18.5220000  43.2430000   6.5820000  20.6370000  43.0260000   6.1680000
  21.2980000  43.0910000   5.3020000  20.7690000  42.0200000   6.5710000
  21.0930000  44.0570000   7.2230000  20.9120000  45.0690000   6.8540000
  22.1730000  43.9600000   7.3510000  20.4480000  43.8970000   8.6140000
  19.3750000  44.0930000   8.5610000  20.8770000  44.6570000   9.2710000
  20.6920000  42.5030000   9.2290000  21.6010000  42.0780000   8.7990000
  19.8640000  41.8430000   8.9640000  20.8770000  42.5260000  10.7560000
  21.6950000  43.2100000  10.9920000  21.1890000  41.5340000  11.0900000
  19.6250000  42.9450000  11.5460000  18.9660000  42.0820000  11.6640000
  19.0670000  43.7020000  10.9900000  19.9780000  43.5290000  12.9270000
  19.0500000  43.7140000  13.4710000  20.4590000  44.4990000  12.7790000
  20.9130000  42.6370000  13.7790000  21.8700000  42.4940000  13.2730000
  20.4680000  41.6500000  13.9160000  21.1940000  43.2370000  15.1360000
  20.6950000  44.2720000  15.5360000  22.0120000  42.4640000  15.8780000
  22.4680000  42.9750000  17.1690000  22.6150000  42.1220000  17.8370000
  21.7080000  43.6200000  17.6190000  23.8270000  43.7110000  17.0280000
  24.5780000  42.9510000  16.7990000  24.2290000  44.4520000  18.3280000
  24.9920000  45.2000000  18.0960000  24.6490000  43.7360000  19.0390000
  23.0890000  45.1020000  18.9540000  23.2650000  46.1750000  20.1500000
  22.6910000  47.5330000  19.5090000  23.3650000  48.2090000  18.4290000
  24.4460000  48.0810000  18.5230000  23.1460000  49.2780000  18.4980000
  22.8740000  47.6580000  17.0660000  23.1030000  46.5940000  17.0050000
  23.4180000  48.1730000  16.2730000  21.4080000  47.7850000  16.7160000
  20.5720000  46.8400000  17.5120000  20.9460000  45.8300000  17.3420000
  19.5350000  46.9200000  17.1820000  20.6610000  47.1030000  18.5670000
  20.9120000  49.1790000  16.9260000  21.5290000  49.8630000  16.3440000
  20.9810000  49.4120000  17.9900000  19.8720000  49.2310000  16.5980000
  21.2300000  47.4370000  15.2760000  21.8140000  48.1280000  14.6670000
  20.1710000  47.5160000  15.0280000  21.5690000  46.4100000  15.1280000
  22.3580000  45.7760000  21.2600000  24.7120000  46.3620000  20.4430000
  23.7710000  44.6720000  15.9330000  24.9160000  44.9420000  15.2700000
  26.0140000  44.5430000  15.6120000  24.6820000  45.8130000  14.0630000
  23.8160000  46.4550000  14.2420000  25.5510000  46.4590000  13.9240000
  24.4520000  44.9670000  12.7950000  25.2950000  44.2870000  12.6540000
  23.5550000  44.3560000  12.9180000  24.3010000  45.8560000  11.5470000
  23.4240000  46.4940000  11.6770000  25.1720000  46.5100000  11.4700000
  24.1650000  45.0460000  10.2420000  24.9800000  44.3220000  10.1820000
  23.2310000  44.4820000  10.2630000  24.1930000  45.9180000   8.9720000
  25.1780000  46.3810000   8.8890000  24.0710000  45.2710000   8.1000000
  23.1060000  47.0120000   8.9470000  22.1260000  46.5410000   9.0540000
  23.2340000  47.6850000   9.7980000  23.1050000  47.8520000   7.6580000
  23.0310000  47.1810000   6.8000000  22.2150000  48.4860000   7.6640000
  24.3390000  48.7260000   7.5440000  24.9900000  48.7290000   8.4140000
  24.6700000  49.4360000   6.4690000  25.5950000  50.0070000   6.4600000
  23.8610000  49.4980000   5.1890000  23.0940000  48.7220000   5.1650000
  23.3500000  50.4610000   5.1350000  24.7500000  49.3620000   3.9410000
  24.1060000  49.3460000   3.0590000  25.3920000  50.2410000   3.8620000
  25.6400000  48.1060000   3.9490000  26.4300000  48.2310000   4.6920000
  25.0460000  47.2400000   4.2480000  26.2700000  47.8420000   2.5700000
  25.4710000  47.6760000   1.8440000  26.8230000  48.7280000   2.2510000
  27.2160000  46.6270000   2.5900000  27.9850000  46.7910000   3.3480000
  26.6570000  45.7380000   2.8910000  27.9230000  46.3660000   1.2470000
  28.5850000  47.2070000   1.0290000  28.5560000  45.4840000   1.3600000
  26.9850000  46.1550000   0.0420000  26.4200000  47.0710000  -0.1470000
  27.5960000  45.9720000  -0.8440000  26.0090000  44.9810000   0.2180000
  25.4410000  44.8190000  -0.7010000  25.3000000  45.1850000   1.0230000
  26.5530000  44.0630000   0.4500000 -48.7000000 -13.9830000   0.5680000
 -48.0420000 -14.6080000  -0.0390000 -48.4730000 -12.9350000   0.3610000
 -49.7340000 -14.1760000   0.2750000 -48.4850000 -14.2890000   2.0580000
 -47.4480000 -14.0640000   2.3150000 -48.6480000 -15.3540000   2.2400000
 -49.4240000 -13.4640000   2.9500000 -50.4540000 -13.7890000   2.7870000
 -49.3650000 -12.4130000   2.6600000 -49.0810000 -13.5850000   4.4430000
 -48.0490000 -13.2680000   4.6060000 -49.1600000 -14.6300000   4.7520000
 -50.0260000 -12.7230000   5.2950000 -51.0480000 -13.0730000   5.1360000
 -49.9810000 -11.6850000   4.9580000 -49.6740000 -12.7820000   6.7940000
 -48.6760000 -12.3650000   6.9410000 -49.6270000 -13.8250000   7.1160000
 -50.6680000 -12.0180000   7.6920000 -50.5880000 -10.9520000   7.4710000
 -50.3660000 -12.1550000   8.7320000 -52.1450000 -12.4380000   7.5480000
 -52.5260000 -12.0970000   6.5830000 -52.7260000 -11.9290000   8.3190000
 -52.3680000 -13.9560000   7.6760000 -51.9990000 -14.2930000   8.6470000
 -51.7930000 -14.4740000   6.9060000 -53.8480000 -14.3470000   7.5170000
 -54.2520000 -13.8540000   6.6300000 -54.4240000 -13.9890000   8.3730000
 -54.0270000 -15.8680000   7.3450000 -53.4770000 -16.1760000   6.4530000
 -55.0800000 -16.0870000   7.1600000 -53.5420000 -16.7230000   8.5300000
 -52.4940000 -16.4990000   8.7400000 -53.5870000 -17.7750000   8.2390000
 -54.3760000 -16.5300000   9.8100000 -55.4070000 -16.8370000   9.6200000
 -54.3890000 -15.4740000  10.0910000 -53.7980000 -17.3500000  10.9740000
 -52.7800000 -17.0070000  11.1690000 -53.7380000 -18.4010000  10.6840000
 -54.6280000 -17.2270000  12.2670000 -55.6140000 -17.6750000  12.1290000
 -54.7670000 -16.1740000  12.5200000 -53.9160000 -17.9110000  13.4070000
 -54.1050000 -19.0680000  13.7430000 -53.0150000 -17.0970000  13.9860000
 -52.1040000 -17.6410000  14.9830000 -51.5540000 -18.4820000  14.5520000
 -52.6720000 -17.9970000  15.8460000 -51.1030000 -16.5390000  15.4250000
 -50.3350000 -16.9760000  16.0680000 -51.8330000 -15.4320000  16.2210000
 -52.4060000 -15.8900000  17.0320000 -52.5230000 -14.8990000  15.5620000
 -50.8800000 -14.4930000  16.7910000 -51.3330000 -13.3980000  17.8900000
 -51.3360000 -14.2440000  19.2570000 -50.0960000 -14.6360000  19.8780000
 -49.4480000 -13.7600000  19.9710000 -49.5890000 -15.3760000  19.2530000
 -50.3760000 -15.1920000  21.2940000 -50.8510000 -14.4160000  21.8970000
 -49.4210000 -15.4410000  21.7570000 -51.2400000 -16.4240000  21.4340000
 -52.6810000 -16.1100000  21.2000000 -52.9900000 -15.3460000  21.9140000
 -53.2660000 -17.0210000  21.3380000 -52.7920000 -15.7370000  20.1810000
 -50.8140000 -17.5030000  20.4910000 -49.7560000 -17.7110000  20.6550000
 -50.9840000 -17.1550000  19.4710000 -51.4140000 -18.3930000  20.6890000
 -51.1100000 -16.9420000  22.8280000 -50.0660000 -17.2050000  23.0100000
 -51.7450000 -17.8220000  22.9340000 -51.4290000 -16.1620000  23.5200000
 -50.2820000 -12.3480000  17.9740000 -52.7350000 -12.9820000  17.6080000
 -50.4880000 -15.9400000  14.2450000 -49.5400000 -16.6290000  13.5840000
 -49.0190000 -17.6460000  14.0110000 -49.2190000 -16.0240000  12.2370000
 -49.8360000 -15.1360000  12.0840000 -48.1740000 -15.7060000  12.2270000
 -49.4820000 -17.0360000  11.1030000 -48.8130000 -17.8900000  11.2250000
 -50.5050000 -17.4080000  11.1830000 -49.2730000 -16.4360000   9.7010000
 -49.9390000 -15.5810000   9.5670000 -48.2470000 -16.0720000   9.6140000
 -49.5440000 -17.4730000   8.5940000 -48.9000000 -18.3410000   8.7500000
 -50.5780000 -17.8160000   8.6710000 -49.2860000 -16.9020000   7.1860000
 -49.9200000 -16.0270000   7.0230000 -48.2490000 -16.5660000   7.1300000
 -49.5350000 -17.9220000   6.0580000 -49.0980000 -17.5320000   5.1360000
 -49.0160000 -18.8540000   6.2900000 -51.0300000 -18.2020000   5.8130000
 -51.4960000 -18.5560000   6.7350000 -51.5370000 -17.2730000   5.5420000
 -51.2240000 -19.2480000   4.7350000 -51.3960000 -20.2560000   5.1040000
 -51.2230000 -19.0290000   3.4230000 -51.3840000 -19.8650000   2.7480000
 -50.9850000 -17.6950000   2.7440000 -50.9850000 -16.8720000   3.4610000
 -50.0020000 -17.7090000   2.2680000 -52.0470000 -17.4310000   1.6620000
 -52.0550000 -18.2550000   0.9460000 -53.0330000 -17.3990000   2.1290000
 -51.7980000 -16.1080000   0.9160000 -51.7170000 -15.2960000   1.6410000
 -50.8470000 -16.1740000   0.3830000 -52.9210000 -15.7740000  -0.0830000
 -53.0390000 -16.6000000  -0.7860000 -53.8600000 -15.6700000   0.4640000
 -52.6220000 -14.4790000  -0.8650000 -52.4460000 -13.6600000  -0.1650000
 -51.6960000 -14.6170000  -1.4260000 -53.7380000 -14.0880000  -1.8550000
 -53.3950000 -13.2380000  -2.4480000 -53.8990000 -14.9150000  -2.5490000
 -55.0870000 -13.7190000  -1.2040000 -55.8070000 -13.5020000  -1.9960000
 -55.4780000 -14.5720000  -0.6450000 -54.9990000 -12.4960000  -0.2740000
 -55.9880000 -12.2470000   0.1150000 -54.6160000 -11.6290000  -0.8160000
 -54.3410000 -12.6980000   0.5740000 -52.8210000  -0.4850000   3.3380000
 -52.5410000   0.2750000   2.6060000 -52.4190000  -0.1890000   4.3090000
 -53.9110000  -0.5130000   3.4020000 -52.2600000  -1.8540000   2.9140000
 -51.1800000  -1.7620000   2.7810000 -52.6800000  -2.1260000   1.9430000
 -52.5340000  -2.9910000   3.9200000 -52.0540000  -2.7460000   4.8700000
 -52.0610000  -3.8990000   3.5430000 -54.0300000  -3.2720000   4.1570000
 -54.5110000  -3.4150000   3.1870000 -54.4970000  -2.4010000   4.6200000
 -54.2910000  -4.5330000   5.0150000 -53.6910000  -5.3530000   4.6150000
 -55.3340000  -4.8340000   4.8990000 -53.9880000  -4.3880000   6.5220000
 -52.9700000  -4.0140000   6.6500000 -54.0160000  -5.3870000   6.9630000
 -54.9800000  -3.4790000   7.2830000 -55.9820000  -3.9090000   7.2150000
 -55.0190000  -2.5010000   6.7990000 -54.6340000  -3.2620000   8.7720000
 -55.3580000  -2.5680000   9.2020000 -53.6550000  -2.7850000   8.8510000
 -54.6450000  -4.5640000   9.5950000 -53.9450000  -5.2810000   9.1600000
 -55.6420000  -5.0050000   9.5310000 -54.2820000  -4.3810000  11.0810000
 -54.5020000  -5.3180000  11.5960000 -54.9140000  -3.6110000  11.5280000
 -52.7980000  -4.0310000  11.3090000 -52.5880000  -3.0250000  10.9390000
 -52.1780000  -4.7260000  10.7400000 -52.4190000  -4.1270000  12.7990000
 -52.7320000  -5.1020000  13.1780000 -52.9640000  -3.3690000  13.3670000
 -50.9060000  -3.9620000  13.0360000 -50.6160000  -2.9360000  12.8030000
 -50.3670000  -4.6200000  12.3510000 -50.5070000  -4.3190000  14.4830000
 -50.7950000  -5.3560000  14.6700000 -51.0680000  -3.7010000  15.1870000
 -48.9990000  -4.1790000  14.7750000 -48.4080000  -4.5770000  13.9470000
 -48.7550000  -4.7750000  15.6570000 -48.5930000  -2.7500000  15.0350000
 -48.6650000  -1.8620000  14.2030000 -48.1520000  -2.5710000  16.2980000
 -47.9830000  -1.2140000  16.8050000 -47.6770000  -0.5300000  16.0100000
 -47.1880000  -1.2290000  17.5550000 -49.2900000  -0.7180000  17.4840000
 -49.1660000   0.3250000  17.7870000 -49.6150000  -1.5370000  18.7520000
 -48.7350000  -1.5910000  19.3970000 -49.8980000  -2.5530000  18.4630000
 -50.6960000  -0.8900000  19.4830000 -51.4050000  -1.5660000  20.7700000
 -52.6760000  -2.3200000  20.1380000 -52.5470000  -3.5980000  19.4900000
 -52.2970000  -4.3530000  20.2400000 -51.7470000  -3.5670000  18.7460000
 -53.8930000  -3.9540000  18.8160000 -54.6770000  -3.9730000  19.5740000
 -53.8110000  -4.9550000  18.3900000 -54.4010000  -3.0660000  17.7010000
 -54.8530000  -1.7360000  18.2100000 -55.6110000  -1.8980000  18.9780000
 -55.2650000  -1.1590000  17.3810000 -53.9920000  -1.2210000  18.6400000
 -53.3580000  -2.8530000  16.6490000 -53.0240000  -3.8280000  16.2900000
 -52.5270000  -2.2990000  17.0890000 -53.8000000  -2.2790000  15.8340000
 -55.5760000  -3.7320000  17.0640000 -55.2590000  -4.6950000  16.6600000
 -55.9530000  -3.0930000  16.2650000 -56.3450000  -3.8780000  17.8240000
 -50.4900000  -2.5750000  21.3710000 -51.9160000  -0.4680000  21.6380000
 -50.4130000  -0.8470000  16.5610000 -50.5900000   0.1190000  15.6400000
 -49.9340000   1.1450000  15.5950000 -51.7110000  -0.2260000  14.6850000
 -51.7250000  -1.3080000  14.5370000 -52.6570000   0.0510000  15.1550000
 -51.5740000   0.4710000  13.3150000 -51.5150000   1.5510000  13.4630000
 -50.6500000   0.1520000  12.8290000 -52.7730000   0.1560000  12.4030000
 -52.8110000  -0.9160000  12.2030000 -53.6920000   0.4230000  12.9300000
 -52.7230000   0.9270000  11.0700000 -52.5740000   1.9890000  11.2780000
 -51.8700000   0.5830000  10.4820000 -54.0280000   0.7500000  10.2680000
 -54.1460000  -0.2980000   9.9860000 -54.8700000   1.0030000  10.9160000
 -54.1090000   1.6470000   9.0160000 -55.1170000   1.5800000   8.6020000
 -53.9590000   2.6870000   9.3140000 -53.0970000   1.2940000   7.9100000
 -53.2080000   2.0290000   7.1100000 -52.0820000   1.3820000   8.3010000
 -53.3650000  -0.0850000   7.3460000 -54.4180000  -0.3330000   7.2310000
 -52.4540000  -1.0060000   7.0490000 -52.7890000  -1.9710000   6.6790000
 -50.9500000  -0.8380000   7.0980000 -50.5180000  -1.1980000   6.1620000
 -50.6870000   0.2190000   7.1710000 -50.3100000  -1.5980000   8.2770000
 -49.2340000  -1.4150000   8.2620000 -50.6880000  -1.1750000   9.2110000
 -50.5510000  -3.1230000   8.2970000 -50.0760000  -3.5340000   9.1900000
 -51.6210000  -3.3190000   8.3990000 -50.0190000  -3.8750000   7.0610000
 -50.5110000  -3.5000000   6.1610000 -48.9490000  -3.6880000   6.9500000
 -50.2700000  -5.3900000   7.1870000 -49.8220000  -5.7280000   8.1240000
 -51.3440000  -5.5750000   7.2610000 -49.6950000  -6.2460000   6.0400000
 -48.6050000  -6.1720000   6.0570000 -49.9420000  -7.2930000   6.2280000
 -50.2150000  -5.8730000   4.6400000 -51.3060000  -5.9230000   4.6360000
 -49.9280000  -4.8480000   4.3970000 -49.6660000  -6.8160000   3.5560000
 -50.0650000  -6.5400000   2.5770000 -49.9520000  -7.8490000   3.7670000
 -48.5760000  -6.7610000   3.5130000 -14.7980000 -19.9630000   3.5170000
 -14.5850000 -19.6440000   2.4950000 -13.9530000 -19.6810000   4.1490000
 -15.6850000 -19.4320000   3.8680000 -15.0240000 -21.4830000   3.5650000
 -14.1230000 -21.9850000   3.2050000 -15.8390000 -21.7420000   2.8860000
 -15.3550000 -21.9740000   4.9880000 -16.3160000 -21.5610000   5.3010000
 -14.6010000 -21.5900000   5.6790000 -15.3880000 -23.5090000   5.1170000
 -15.5510000 -23.7670000   6.1650000 -14.4060000 -23.9040000   4.8480000
 -16.4690000 -24.1970000   4.2600000 -16.3340000 -23.9310000   3.2100000
 -17.4560000 -23.8450000   4.5680000 -16.3970000 -25.7290000   4.3990000
 -16.5960000 -26.0140000   5.4340000 -15.3730000 -26.0410000   4.1840000
 -17.3360000 -26.4920000   3.4410000 -17.0690000 -27.5510000   3.4610000
 -17.1510000 -26.1430000   2.4220000 -18.8420000 -26.3720000   3.7430000
 -19.3870000 -26.9550000   2.9970000 -19.1580000 -25.3340000   3.6250000
 -19.2270000 -26.8750000   5.1490000 -18.7550000 -26.2400000   5.9010000
 -18.8440000 -27.8890000   5.2850000 -20.7520000 -26.8780000   5.3690000
 -21.2200000 -27.4770000   4.5850000 -21.1380000 -25.8620000   5.2680000
 -21.1770000 -27.4480000   6.7370000 -20.8380000 -28.4830000   6.8160000
 -22.2680000 -27.4630000   6.7750000 -20.6520000 -26.6460000   7.9450000
 -20.9540000 -25.6020000   7.8350000 -19.5610000 -26.6800000   7.9700000
 -21.2070000 -27.2060000   9.2670000 -20.9520000 -28.2660000   9.3370000
 -22.2970000 -27.1370000   9.2440000 -20.7040000 -26.4910000  10.5340000
 -19.6190000 -26.5910000  10.6080000 -21.1390000 -26.9970000  11.3990000
 -21.0950000 -25.0020000  10.5740000 -22.1560000 -24.8980000  10.3360000
 -20.5310000 -24.4470000   9.8230000 -20.8500000 -24.3820000  11.9300000
 -21.7450000 -23.9490000  12.6360000 -19.5420000 -24.3300000  12.2640000
 -19.1620000 -23.6490000  13.5020000 -19.6590000 -22.6760000  13.5520000
 -18.0830000 -23.4790000  13.4780000 -19.5020000 -24.4910000  14.7640000
 -20.5570000 -24.7780000  14.7550000 -19.2650000 -23.6940000  16.0670000
 -19.3710000 -24.3690000  16.9200000 -20.0140000 -22.9030000  16.1530000
 -17.9410000 -23.0960000  16.1010000 -17.3930000 -22.3910000  17.4440000
 -17.1240000 -23.6500000  18.4150000 -15.9750000 -23.7070000  19.2860000
 -15.0910000 -23.3320000  18.7620000 -15.7880000 -24.7500000  19.5530000
 -16.2420000 -22.8700000  20.5620000 -16.5460000 -21.8640000  20.2690000
 -15.3130000 -22.7900000  21.1280000 -17.2820000 -23.3580000  21.5430000
 -18.6460000 -23.4120000  20.9380000 -18.8840000 -22.4250000  20.5410000
 -19.3630000 -23.7030000  21.7070000 -18.6320000 -24.1420000  20.1280000
 -16.9310000 -24.7120000  22.0700000 -15.9330000 -24.6690000  22.5070000
 -16.9600000 -25.4270000  21.2480000 -17.6630000 -24.9870000  22.8310000
 -17.3320000 -22.4110000  22.6950000 -16.3480000 -22.3770000  23.1650000
 -18.0780000 -22.7670000  23.4070000 -17.6090000 -21.4240000  22.3220000
 -16.0990000 -21.7310000  17.1150000 -18.4850000 -21.5720000  18.0370000
 -18.6570000 -25.6720000  14.8060000 -19.0820000 -26.8090000  14.2310000
 -20.2230000 -27.0030000  13.8540000 -17.9830000 -27.8370000  14.1150000
 -17.4590000 -27.9240000  15.0690000 -18.4400000 -28.8070000  13.9040000
 -16.9880000 -27.4890000  12.9870000 -16.4950000 -28.4120000  12.6750000
 -17.5360000 -27.1130000  12.1210000 -15.9010000 -26.4800000  13.4170000
 -16.3640000 -25.5320000  13.6980000 -15.3970000 -26.8660000  14.3050000
 -14.8390000 -26.2130000  12.3320000 -14.0440000 -25.6060000  12.7700000
 -14.3890000 -27.1590000  12.0240000 -15.4020000 -25.4800000  11.0990000
 -16.1620000 -26.1010000  10.6190000 -15.8900000 -24.5610000  11.4290000
 -14.3100000 -25.1380000  10.0640000 -13.5310000 -24.5350000  10.5370000
 -13.8340000 -26.0610000   9.7270000 -14.8510000 -24.3850000   8.8340000
 -14.0430000 -24.2930000   8.1050000 -15.6330000 -24.9810000   8.3580000
 -15.3490000 -22.9940000   9.1850000 -14.5650000 -22.2630000   9.3660000
 -16.6200000 -22.6040000   9.2330000 -16.8490000 -21.5680000   9.4710000
 -17.8290000 -23.5000000   9.0580000 -17.5680000 -24.5420000   9.2520000
 -18.5890000 -23.2270000   9.7920000 -18.4250000 -23.3920000   7.6430000
 -17.6310000 -23.5460000   6.9100000 -19.1420000 -24.2060000   7.5130000
 -19.1360000 -22.0510000   7.3620000 -20.0220000 -21.9850000   7.9970000
 -18.4800000 -21.2240000   7.6400000 -19.5510000 -21.8680000   5.8870000
 -20.1680000 -20.9710000   5.8040000 -18.6510000 -21.6960000   5.2910000
 -20.3180000 -23.0710000   5.3040000 -19.6600000 -23.9430000   5.3030000
 -21.1630000 -23.3150000   5.9520000 -20.8430000 -22.8590000   3.8720000
 -21.3200000 -23.7860000   3.5480000 -21.6110000 -22.0830000   3.8760000
 -19.7520000 -22.4900000   2.8480000 -19.3650000 -21.4920000   3.0640000
 -18.9190000 -23.1910000   2.9270000 -20.2870000 -22.5260000   1.4090000
 -19.4870000 -22.2870000   0.7050000 -21.0960000 -21.8040000   1.2800000
 -20.6660000 -23.5220000   1.1710000  32.5250000  40.7660000   0.9530000
  32.9980000  40.4570000   0.0180000  31.5980000  41.2920000   0.7120000
  32.2720000  39.8730000   1.5280000  33.4700000  41.6750000   1.7550000
  33.7400000  42.5350000   1.1390000  34.3880000  41.1300000   1.9880000
  32.8320000  42.1920000   3.0510000  32.5400000  41.3430000   3.6730000
  31.9250000  42.7450000   2.7970000  33.7890000  43.0840000   3.8640000
  34.2550000  43.8250000   3.2120000  34.5880000  42.4600000   4.2700000
  33.0730000  43.8070000   5.0200000  33.8190000  44.1510000   5.7380000
  32.4180000  43.1060000   5.5410000  32.2640000  45.0220000   4.5280000
  31.5950000  44.7240000   3.7170000  32.9550000  45.7640000   4.1220000
  31.4220000  45.6640000   5.6430000  32.0550000  45.8770000   6.5070000
  30.6590000  44.9530000   5.9640000  30.7650000  46.9700000   5.1610000
  30.1910000  46.7810000   4.2520000  31.5570000  47.6760000   4.9030000
  29.8530000  47.6210000   6.2160000  29.5870000  48.6230000   5.8730000
  30.4150000  47.7350000   7.1450000  28.5560000  46.8280000   6.4770000
  28.7950000  45.8130000   6.8020000  27.9990000  46.7410000   5.5410000
  27.6490000  47.4950000   7.5260000  26.6450000  47.0760000   7.4290000
  27.5720000  48.5630000   7.3150000  28.1490000  47.2660000   8.9650000
  29.2140000  47.5020000   9.0170000  28.0410000  46.2070000   9.2070000
  27.3950000  48.1070000  10.0170000  26.3190000  47.9770000   9.8830000
  27.6080000  49.1680000   9.8700000  27.7500000  47.7120000  11.4620000
  27.4610000  46.6690000  11.6070000  27.1470000  48.3090000  12.1500000
  29.2430000  47.8800000  11.8140000  29.5180000  48.9370000  11.7970000
  29.8630000  47.3690000  11.0760000  29.5660000  47.3070000  13.1750000
  29.0140000  47.6420000  14.2100000  30.5550000  46.3890000  13.1130000
  30.9730000  45.7020000  14.3310000  31.0680000  46.4170000  15.1520000
  31.9580000  45.2640000  14.1470000  29.9920000  44.5600000  14.7130000
  29.0070000  44.9750000  14.9420000  30.4950000  43.8300000  15.9810000
  30.5520000  44.5520000  16.8000000  31.4940000  43.4220000  15.8090000
  29.5960000  42.7430000  16.3490000  29.5550000  42.1350000  17.8500000
  28.2520000  42.8260000  18.5080000  28.1950000  44.2350000  18.8140000
  27.1450000  44.5330000  18.8590000  28.6670000  44.8070000  18.0110000
  28.8740000  44.5490000  20.1700000  28.7930000  45.6220000  20.3520000
  29.9340000  44.2970000  20.1140000  28.3480000  43.8800000  21.4170000
  26.8620000  43.9720000  21.5130000  26.5690000  45.0200000  21.4350000
  26.5480000  43.5610000  22.4740000  26.4280000  43.3950000  20.6960000
  28.7480000  42.4440000  21.4750000  29.8350000  42.3860000  21.3890000
  28.2800000  41.9240000  20.6380000  28.4120000  42.0220000  22.4230000
  28.9360000  44.5650000  22.6050000  30.0230000  44.4940000  22.5450000
  28.5740000  44.0710000  23.5080000  28.6220000  45.6100000  22.5960000
  29.2840000  40.6750000  17.7450000  30.7650000  42.5810000  18.5940000
  29.9170000  43.5910000  13.6240000  28.8900000  43.6780000  12.7540000
  28.0310000  44.5410000  12.7970000  28.9220000  42.5770000  11.7160000
  29.9600000  42.3700000  11.4450000  28.5190000  41.6700000  12.1720000
  28.1180000  42.9330000  10.4470000  27.1170000  43.2630000  10.7350000
  28.6030000  43.7660000   9.9330000  27.9760000  41.7350000   9.4910000
  28.9620000  41.4030000   9.1600000  27.5280000  40.9050000  10.0410000
  27.0800000  42.0460000   8.2740000  26.8140000  41.1130000   7.7740000
  26.1410000  42.4760000   8.6310000  27.6980000  43.0070000   7.2390000
  26.9530000  43.1910000   6.4620000  27.8920000  43.9700000   7.7150000
  28.9940000  42.5130000   6.5580000  29.2250000  43.1940000   5.7370000
  29.8230000  42.5730000   7.2670000  28.9110000  41.0760000   6.0030000
  28.8880000  40.3820000   6.8460000  27.9780000  40.9550000   5.4480000
  30.1130000  40.7510000   5.1400000  31.0550000  41.1540000   5.5040000
  30.1030000  40.0880000   3.9860000  31.0410000  39.9480000   3.4550000
  28.9150000  39.4130000   3.3280000  29.2160000  38.4030000   3.0440000
  28.0810000  39.2990000   4.0230000  28.4600000  40.1480000   2.0470000
  29.3180000  40.2520000   1.3800000  27.7250000  39.5320000   1.5250000
  27.8520000  41.5440000   2.2950000  28.5570000  42.1450000   2.8730000
  27.7130000  42.0480000   1.3360000  26.4960000  41.4890000   3.0260000
  25.7470000  41.0450000   2.3670000  26.5710000  40.8390000   3.9010000
  26.0210000  42.8770000   3.4860000  26.8480000  43.4010000   3.9690000
  25.7220000  43.4610000   2.6130000  24.8500000  42.7740000   4.4790000
  24.0150000  42.2490000   4.0100000  25.1670000  42.1730000   5.3340000
  24.3720000  44.1440000   4.9950000  23.7010000  43.9790000   5.8400000
  25.2210000  44.7220000   5.3660000  23.6210000  44.9500000   3.9250000
  23.1860000  45.8500000   4.3630000  22.8150000  44.3460000   3.5040000
  24.2920000  45.2450000   3.1150000 -25.7400000   5.9720000   0.7550000
 -25.5410000   5.8550000  -0.3120000 -26.6580000   6.5520000   0.8730000
 -25.8960000   4.9790000   1.1830000 -24.5600000   6.6830000   1.4370000
 -24.3830000   7.6290000   0.9210000 -23.6570000   6.0790000   1.3200000
 -24.7890000   6.9820000   2.9300000 -25.6950000   7.5820000   3.0380000
 -23.9560000   7.5960000   3.2800000 -24.9100000   5.7230000   3.8130000
 -24.0210000   5.1010000   3.6880000 -25.7700000   5.1360000   3.4830000
 -25.0920000   6.0470000   5.3090000 -25.3810000   5.1310000   5.8290000
 -25.9150000   6.7550000   5.4240000 -23.8230000   6.6200000   5.9730000
 -23.4120000   7.4210000   5.3550000 -23.0620000   5.8390000   6.0310000
 -24.0770000   7.1990000   7.3760000 -24.7650000   8.0410000   7.2850000
 -23.1360000   7.5970000   7.7630000 -24.6450000   6.1860000   8.3890000
 -23.9570000   5.3430000   8.4810000 -25.6020000   5.7970000   8.0320000
 -24.8520000   6.8330000   9.7690000 -25.5690000   7.6510000   9.6760000
 -23.9060000   7.2630000  10.1040000 -25.3500000   5.8330000  10.8290000
 -24.6480000   4.9970000  10.8770000 -26.3190000   5.4260000  10.5350000
 -25.4540000   6.4700000  12.2290000 -24.5300000   7.0120000  12.4420000
 -25.5310000   5.6750000  12.9730000 -26.6500000   7.4260000  12.3920000
 -27.5810000   6.8650000  12.2890000 -26.6340000   8.1750000  11.5970000
 -26.6180000   8.1390000  13.7560000 -25.7170000   8.7530000  13.8160000
 -26.5480000   7.3940000  14.5520000 -27.8520000   9.0330000  13.9830000
 -28.7460000   8.4100000  14.0620000 -27.9830000   9.6700000  13.1060000
 -27.7350000   9.9480000  15.2220000 -28.5090000  10.7160000  15.1610000
 -26.7750000  10.4700000  15.2140000 -27.8880000   9.2370000  16.5470000
 -27.6580000   8.0590000  16.7460000 -28.3420000  10.0780000  17.5010000
 -28.4780000   9.5940000  18.8710000 -29.0340000   8.6530000  18.8770000
 -29.0460000  10.3370000  19.4380000 -27.0940000   9.4040000  19.5470000
 -26.5560000   8.5860000  19.0620000 -27.2460000   9.0370000  21.0400000
 -27.8460000   8.1280000  21.1340000 -27.7500000   9.8470000  21.5730000
 -25.9290000   8.8310000  21.6330000 -25.4990000   7.4180000  22.2830000
 -25.2780000   6.4780000  20.9930000 -24.0170000   6.4570000  20.2930000
 -23.2200000   6.2270000  21.0050000 -23.8190000   7.4370000  19.8510000
 -24.0480000   5.3460000  19.2190000 -24.3890000   4.4170000  19.6770000
 -23.0330000   5.1880000  18.8520000 -24.9060000   5.5440000  17.9950000
 -24.5240000   6.7840000  17.2520000 -24.6950000   7.6480000  17.8950000
 -25.1550000   6.8630000  16.3660000 -23.4720000   6.7210000  16.9670000
 -24.6940000   4.3810000  17.0890000 -25.0870000   3.4950000  17.5890000
 -23.6270000   4.2650000  16.8950000 -25.2330000   4.5640000  16.1580000
 -26.3560000   5.5960000  18.3340000 -26.6390000   4.6270000  18.7490000
 -26.9300000   5.8060000  17.4300000 -26.5120000   6.3820000  19.0750000
 -24.1970000   7.6120000  22.9780000 -26.6480000   6.8860000  23.0650000
 -26.3360000  10.6440000  19.4850000 -25.3410000  10.7490000  18.5870000
 -25.1320000   9.9300000  17.7100000 -24.5270000  12.0050000  18.8040000
 -25.2120000  12.8550000  18.7990000 -24.0700000  11.9670000  19.7950000
 -23.4400000  12.2240000  17.7290000 -23.9150000  12.1810000  16.7470000
 -23.0430000  13.2360000  17.8400000 -22.2550000  11.2320000  17.8120000
 -21.5590000  11.5890000  18.5740000 -22.6010000  10.2500000  18.1420000
 -21.5060000  11.0710000  16.4750000 -21.2650000  12.0580000  16.0760000
 -20.5640000  10.5480000  16.6480000 -22.3270000  10.2810000  15.4370000
 -22.5090000   9.2740000  15.8180000 -23.3010000  10.7580000  15.3100000
 -21.6380000  10.1800000  14.0600000 -21.4040000  11.1810000  13.6900000
 -20.6920000   9.6460000  14.1700000 -22.5200000   9.4530000  13.0230000
 -22.7980000   8.4780000  13.4280000 -21.9430000   9.2850000  12.1110000
 -23.7700000  10.2400000  12.7070000 -24.1200000  10.9190000  13.4810000
 -24.4230000  10.1640000  11.5580000 -24.0830000   9.5030000  10.7660000
 -25.6500000  10.9950000  11.2720000 -26.5540000  10.3930000  11.3890000
 -25.7140000  11.8080000  11.9980000 -25.6190000  11.5880000   9.8530000
 -26.3970000  12.3490000   9.7760000 -24.6620000  12.0940000   9.7100000
 -25.8190000  10.5700000   8.7080000 -25.0600000   9.7880000   8.7670000
 -25.6580000  11.1030000   7.7690000 -27.2320000   9.9430000   8.7090000
 -27.3520000   9.3190000   9.5970000 -27.9640000  10.7480000   8.7970000
 -27.5800000   9.0960000   7.4660000 -27.0300000   8.1540000   7.5020000
 -28.6410000   8.8440000   7.5130000 -27.2950000   9.7990000   6.1230000
 -27.6630000  10.8260000   6.1620000 -26.2160000   9.8460000   5.9610000
 -27.9460000   9.0860000   4.9240000 -27.6260000   8.0420000   4.8950000
 -29.0310000   9.0920000   5.0440000 -27.5820000   9.7620000   3.5910000
 -28.0480000   9.2320000   2.7580000 -26.5010000   9.7590000   3.4420000
 -27.9290000  10.7980000   3.5850000  51.1650000  -2.6950000   1.5090000
  50.3820000  -3.1240000   0.8800000  51.8640000  -3.4890000   1.7810000
  51.7010000  -1.9420000   0.9280000  50.5490000  -2.0650000   2.7690000
  49.9980000  -2.8300000   3.3190000  49.8340000  -1.2960000   2.4690000
  51.6160000  -1.4430000   3.6880000  52.1790000  -0.6910000   3.1310000
  52.3200000  -2.2180000   3.9990000  50.9960000  -0.7880000   4.9360000
  50.4110000  -1.5320000   5.4810000  50.3140000   0.0030000   4.6190000
  52.0610000  -0.1900000   5.8730000  52.6390000   0.5580000   5.3270000
  52.7560000  -0.9720000   6.1850000  51.4270000   0.4540000   7.1200000
  50.8110000  -0.2910000   7.6280000  50.7610000   1.2600000   6.8030000
  52.4750000   1.0130000   8.1030000  53.1440000   1.6860000   7.5620000
  53.0870000   0.1970000   8.4930000  51.8450000   1.7970000   9.2710000
  51.1850000   2.5600000   8.8530000  52.6290000   2.3350000   9.8070000
  51.0290000   0.9370000  10.2590000  50.3180000   0.3240000   9.7010000
  50.4310000   1.6010000  10.8860000  51.8560000   0.0250000  11.1840000
  52.4210000  -0.7000000  10.5950000  51.1640000  -0.5360000  11.8160000
  52.8090000   0.8220000  12.0890000  52.2570000   1.6440000  12.5490000
  53.6030000   1.2580000  11.4790000  53.4240000  -0.0430000  13.2040000
  53.9810000  -0.8760000  12.7710000  52.6180000  -0.4650000  13.8070000
  54.3460000   0.7860000  14.1170000  54.5510000   0.2150000  15.0250000
  53.8210000   1.6940000  14.4200000  55.6920000   1.1460000  13.4580000
  55.5490000   1.4730000  12.4260000  56.3090000   0.2460000  13.4200000
  56.4490000   2.2400000  14.2370000  56.4490000   1.9980000  15.3020000
  57.4940000   2.2590000  13.9200000  55.8670000   3.6260000  14.0460000
  55.1390000   3.9600000  13.1260000  56.2720000   4.4560000  15.0310000
  55.6070000   5.7430000  15.2180000  55.3550000   6.1970000  14.2560000
  56.3060000   6.4070000  15.7330000  54.3390000   5.6010000  16.1040000
  53.9990000   6.6060000  16.3660000  54.6610000   4.8220000  17.4000000
  55.4310000   5.3510000  17.9670000  55.0400000   3.8310000  17.1380000
  53.4790000   4.6600000  18.2310000  53.5180000   3.6950000  19.5210000
  53.5440000   2.2320000  18.8570000  52.3280000   1.5980000  18.4240000
  51.7350000   2.3140000  17.8490000  51.7490000   1.2860000  19.2970000
  52.6720000   0.3870000  17.5240000  53.1480000   0.7440000  16.6100000
  51.7390000  -0.1090000  17.2490000  53.5700000  -0.6940000  18.0840000
  55.0040000  -0.2730000  18.0740000  55.3010000  -0.0370000  17.0510000
  55.6110000  -1.0880000  18.4690000  55.1040000   0.6100000  18.7070000
  53.1890000  -1.0510000  19.4800000  52.1480000  -1.3770000  19.4860000
  53.3250000  -0.1720000  20.1110000  53.8300000  -1.8660000  19.8200000
  53.4460000  -1.9200000  17.2380000  52.4240000  -2.2970000  17.3080000
  54.1430000  -2.6710000  17.6130000  53.6840000  -1.6620000  16.2050000
  54.8060000   3.9020000  20.2410000  52.2460000   3.8630000  20.2770000
  53.3230000   4.8780000  15.3520000  52.0950000   5.4120000  15.2040000
  51.7130000   6.4430000  15.7330000  51.2400000   4.6120000  14.2500000
  51.7150000   3.6460000  14.0650000  50.2680000   4.4200000  14.7090000
  51.0660000   5.3710000  12.9180000  50.5300000   6.3050000  13.0980000
  52.0550000   5.6290000  12.5340000  50.3090000   4.5420000  11.8640000
  50.8630000   3.6180000  11.6850000  49.3330000   4.2590000  12.2650000
  50.1020000   5.2660000  10.5170000  49.5280000   4.6050000   9.8640000
  49.5000000   6.1640000  10.6740000  51.4250000   5.6510000   9.8210000
  51.9410000   6.3990000  10.4270000  52.0740000   4.7740000   9.7740000
  51.2600000   6.2220000   8.3970000  50.6270000   7.1110000   8.4260000
  52.2420000   6.5370000   8.0380000  50.6610000   5.2250000   7.3920000
  51.2210000   4.2890000   7.4400000  49.6290000   5.0140000   7.6790000
  50.6740000   5.8020000   5.9900000  50.2980000   6.8190000   5.9060000
  51.1450000   5.1890000   4.9090000  51.1260000   5.7060000   3.9530000
  51.6600000   3.7650000   4.8640000  51.1080000   3.1560000   5.5820000
  51.4630000   3.3290000   3.8820000  53.1670000   3.6610000   5.1850000
  53.4070000   4.2850000   6.0480000  53.3760000   2.6310000   5.4790000
  54.1110000   3.9990000   4.0160000  55.1220000   3.6950000   4.2970000
  53.8250000   3.3910000   3.1540000  54.1430000   5.4880000   3.6190000
  53.1620000   5.8000000   3.2560000  54.3640000   6.0890000   4.5040000
  55.2030000   5.7910000   2.5410000  55.1750000   6.8590000   2.3140000
  56.1910000   5.5780000   2.9540000  55.0300000   4.9960000   1.2290000
  55.8420000   5.2630000   0.5490000  55.1300000   3.9270000   1.4270000
  53.6890000   5.2650000   0.5230000  52.8580000   4.9710000   1.1670000
  53.5930000   6.3350000   0.3260000  53.5850000   4.4960000  -0.8020000
  52.6500000   4.7430000  -1.3100000  53.6040000   3.4200000  -0.6170000
  54.4150000   4.7540000  -1.4630000  13.3380000   1.3260000   1.4030000
  14.2530000   1.4280000   0.8170000  12.6090000   2.0540000   1.0420000
  12.9380000   0.3230000   1.2420000  13.6360000   1.5530000   2.8930000
  14.0270000   2.5630000   3.0350000  14.4090000   0.8510000   3.2100000
  12.3790000   1.3580000   3.7590000  11.9680000   0.3630000   3.5720000
  11.6230000   2.0870000   3.4620000  12.6820000   1.5020000   5.2620000
  13.0170000   2.5200000   5.4730000  13.5070000   0.8360000   5.5200000
  11.4770000   1.1440000   6.1550000  11.7860000   1.2050000   7.2010000
  11.2040000   0.1030000   5.9690000  10.2250000   2.0210000   5.9570000
   9.4300000   1.6300000   6.5940000   9.8710000   1.9490000   4.9260000
  10.4720000   3.4960000   6.3210000  11.2100000   3.9290000   5.6440000
  10.8890000   3.5410000   7.3290000   9.1790000   4.3300000   6.2520000
   8.3850000   3.8280000   6.8100000   8.8550000   4.3770000   5.2110000
   9.3510000   5.7650000   6.7890000   8.7790000   6.4410000   6.1500000
  10.3970000   6.0670000   6.7120000   8.8470000   5.9430000   8.2360000
   7.7840000   5.6950000   8.2610000   8.9240000   6.9960000   8.5150000
   9.5690000   5.0800000   9.2910000   9.5100000   4.0280000   9.0050000
   9.0290000   5.1640000  10.2360000  11.0450000   5.4520000   9.5490000
  11.6340000   5.3500000   8.6350000  11.4440000   4.7330000  10.2670000
  11.2140000   6.8750000  10.1190000  10.3800000   7.0850000  10.7910000
  11.1740000   7.6090000   9.3110000  12.5220000   7.0360000  10.9140000
  13.3780000   6.9380000  10.2440000  12.5870000   6.2270000  11.6450000
  12.5820000   8.3800000  11.6670000  11.6580000   8.5130000  12.2340000
  12.6530000   9.2140000  10.9660000  13.7460000   8.4270000  12.6300000
  14.8710000   8.0490000  12.3600000  13.3870000   8.9410000  13.8250000
  14.2950000   8.8410000  14.9600000  14.0150000   9.6190000  15.6750000
  15.3300000   9.0130000  14.6530000  14.1520000   7.4600000  15.6530000
  13.0930000   7.1900000  15.6510000  14.6390000   7.5160000  17.1260000
  13.9770000   8.1440000  17.7270000  15.6440000   7.9450000  17.1500000
  14.7070000   6.1770000  17.6960000  13.3890000   5.3420000  18.1320000
  13.4890000   5.3170000  19.7390000  14.5190000   4.5690000  20.4190000
  14.6460000   4.9890000  21.4200000  15.4640000   4.6880000  19.8820000
  14.1540000   3.0670000  20.5280000  14.9640000   2.5570000  21.0520000
  14.0780000   2.6400000  19.5270000  12.8850000   2.6740000  21.2470000
  11.6740000   3.0010000  20.4380000  11.6290000   4.0840000  20.3130000
  10.7900000   2.6380000  20.9640000  11.7680000   2.5150000  19.4660000
  12.9000000   1.1970000  21.4590000  13.7540000   0.9400000  22.0870000
  12.9790000   0.7120000  20.4850000  11.9710000   0.9060000  21.9520000
  12.7790000   3.3380000  22.5810000  13.6670000   3.0940000  23.1660000
  11.8820000   2.9710000  23.0820000  12.7080000   4.4150000  22.4240000
  12.1740000   6.1300000  17.7870000  13.5240000   3.9600000  17.6020000
  14.9490000   6.4600000  14.9590000  14.3380000   5.4000000  14.3950000
  13.1470000   5.3510000  14.1300000  15.3330000   4.2880000  14.1350000
  16.2620000   4.7260000  13.7610000  15.5780000   3.8340000  15.0980000
  14.8470000   3.1800000  13.1740000  15.6300000   2.4210000  13.1250000
  13.9670000   2.6940000  13.6000000  14.5260000   3.6230000  11.7310000
  14.5100000   2.7340000  11.0960000  13.5260000   4.0600000  11.6920000
  15.5380000   4.6350000  11.1700000  15.3260000   5.6150000  11.6030000
  16.5460000   4.3600000  11.4870000  15.5220000   4.7440000   9.6360000
  15.8850000   3.8080000   9.2050000  14.5010000   4.9010000   9.2820000
  16.4160000   5.9140000   9.1860000  15.9270000   6.8500000   9.4630000
  17.3550000   5.8710000   9.7410000  16.7640000   5.9380000   7.6870000
  17.2900000   6.8740000   7.4880000  17.4660000   5.1270000   7.4810000
  15.5480000   5.8720000   6.7850000  14.7190000   6.5100000   7.0810000
  15.4450000   5.1410000   5.6780000  14.5280000   5.1880000   5.0960000
  16.4970000   4.1920000   5.1330000  17.1410000   3.8110000   5.9280000
  15.9970000   3.3180000   4.7100000  17.3720000   4.8340000   4.0350000
  18.0770000   4.0790000   3.6800000  16.7360000   5.1020000   3.1890000
  18.1610000   6.0820000   4.4850000  17.4630000   6.8780000   4.7490000
  18.7310000   5.8360000   5.3830000  19.1410000   6.6110000   3.4170000
  19.6540000   7.4870000   3.8180000  19.9080000   5.8540000   3.2400000
  18.4780000   6.9870000   2.0750000  17.9830000   6.1110000   1.6520000
  17.7160000   7.7480000   2.2520000  19.5080000   7.5100000   1.0540000
  19.9760000   8.4170000   1.4430000  20.2990000   6.7660000   0.9420000
  18.9160000   7.8000000  -0.3420000  19.7340000   8.0330000  -1.0260000
  18.4270000   6.9020000  -0.7260000  17.9200000   8.9690000  -0.3670000
  17.6450000   9.2050000  -1.3970000  18.3620000   9.8600000   0.0840000
  17.0090000   8.7110000   0.1780000 -30.6080000  39.2520000   3.9140000
 -29.7050000  38.9920000   3.3580000 -30.3310000  39.9450000   4.7120000
 -31.2970000  39.7590000   3.2350000 -31.2580000  37.9850000   4.4910000
 -30.5590000  37.5020000   5.1770000 -31.4460000  37.2840000   3.6750000
 -32.5880000  38.2520000   5.2220000 -33.0060000  37.2940000   5.5380000
 -33.3020000  38.6950000   4.5250000 -32.4480000  39.1620000   6.4580000
 -32.0920000  40.1500000   6.1590000 -31.7000000  38.7380000   7.1290000
 -33.7850000  39.3160000   7.2070000 -34.2790000  38.3450000   7.2710000
 -34.4360000  39.9810000   6.6350000 -33.5950000  39.8590000   8.6330000
 -33.0150000  40.7840000   8.5970000 -33.0070000  39.1340000   9.2000000
 -34.9150000  40.1000000   9.3890000 -34.6930000  40.2020000  10.4530000
 -35.5480000  39.2150000   9.2900000 -35.7050000  41.3410000   8.9210000
 -36.6100000  41.4200000   9.5270000 -36.0340000  41.1950000   7.8900000
 -34.9220000  42.6700000   9.0040000 -35.5970000  43.4950000   8.7680000
 -34.1480000  42.6670000   8.2340000 -34.2710000  42.9290000  10.3800000
 -33.4800000  42.1940000  10.5470000 -35.0110000  42.7880000  11.1700000
 -33.6600000  44.3360000  10.5230000 -33.1270000  44.3810000  11.4750000
 -34.4590000  45.0790000  10.5720000 -32.7090000  44.7020000   9.3660000
 -33.3170000  45.0390000   8.5250000 -32.1640000  43.8170000   9.0310000
 -31.7030000  45.8160000   9.7140000 -32.1050000  46.4610000  10.4980000
 -31.5750000  46.4390000   8.8260000 -30.3110000  45.2770000  10.1110000
 -29.6250000  46.1140000  10.2550000 -29.9260000  44.7030000   9.2660000
 -30.2730000  44.3670000  11.3610000 -31.0140000  43.5700000  11.2740000
 -29.2980000  43.8780000  11.4140000 -30.4780000  45.0960000  12.6700000
 -30.3510000  46.2990000  12.8240000 -30.7910000  44.2440000  13.6660000
 -30.7900000  44.7510000  15.0340000 -31.4250000  45.6380000  15.0950000
 -29.7690000  45.0240000  15.3120000 -31.3300000  43.6810000  16.0140000
 -32.3770000  43.4960000  15.7620000 -31.2180000  44.1920000  17.4700000
 -31.7330000  45.1530000  17.5490000 -30.1670000  44.3350000  17.7340000
 -31.8230000  43.2600000  18.4080000 -32.1020000  43.7040000  19.9350000
 -32.6040000  42.3460000  20.6380000 -33.9070000  41.7890000  20.3640000
 -34.6200000  42.5880000  20.1460000 -34.2560000  41.2650000  21.2580000
 -33.8320000  40.8040000  19.1720000 -33.4490000  41.3280000  18.2950000
 -34.8420000  40.4590000  18.9460000 -32.9900000  39.5590000  19.3220000
 -33.3510000  38.7990000  20.5580000 -33.1100000  39.4140000  21.4250000
 -32.7700000  37.8760000  20.5820000 -34.4190000  38.5750000  20.5340000
 -33.2360000  38.6690000  18.1470000 -33.0170000  39.2280000  17.2360000
 -34.2810000  38.3580000  18.1570000 -32.5840000  37.7970000  18.2250000
 -31.5340000  39.8870000  19.3640000 -31.2960000  40.5100000  18.5010000
 -30.9570000  38.9610000  19.3530000 -31.3370000  40.4440000  20.2820000
 -30.8040000  44.0810000  20.5580000 -33.2120000  44.6950000  19.9470000
 -30.5280000  42.4730000  15.8750000 -31.1480000  41.2790000  15.8820000
 -32.3450000  41.1120000  16.0390000 -30.1920000  40.1290000  15.6700000
 -29.1630000  40.4750000  15.7820000 -30.3720000  39.3820000  16.4470000
 -30.3880000  39.4870000  14.2820000 -29.8330000  38.5470000  14.2440000
 -31.4420000  39.2430000  14.1380000 -29.9030000  40.3970000  13.1390000
 -30.3730000  41.3790000  13.2180000 -28.8250000  40.5430000  13.2370000
 -30.2190000  39.8090000  11.7530000 -29.8850000  38.7700000  11.7040000
 -31.3000000  39.8140000  11.5980000 -29.5320000  40.6150000  10.6400000
 -29.8110000  41.6670000  10.7340000 -28.4500000  40.5490000  10.7740000
 -29.9180000  40.1230000   9.2350000 -29.6540000  39.0700000   9.1170000
 -31.0030000  40.1950000   9.1350000 -29.2740000  40.9470000   8.1080000
 -29.7230000  40.6490000   7.1580000 -29.5170000  42.0000000   8.2680000
 -27.7710000  40.7590000   8.0760000 -27.2880000  40.6640000   9.0450000
 -27.0480000  40.5970000   6.9760000 -25.9820000  40.4000000   7.0600000
 -27.5640000  40.7730000   5.5660000 -27.9490000  39.8220000   5.1920000
 -28.3780000  41.5000000   5.5470000 -26.4280000  41.2350000   4.6430000
 -25.9820000  42.1390000   5.0650000 -25.6520000  40.4670000   4.6220000
 -26.8750000  41.5340000   3.2020000 -25.9840000  41.7180000   2.5980000
 -27.3790000  40.6610000   2.7800000 -27.7980000  42.7650000   3.1200000
 -28.7630000  42.5380000   3.5780000 -27.3480000  43.5830000   3.6860000
 -28.0150000  43.2250000   1.6710000 -27.0420000  43.4250000   1.2150000
 -28.4930000  42.4260000   1.1000000 -28.8730000  44.4990000   1.5930000
 -29.8740000  44.2890000   1.9750000 -28.4320000  45.2650000   2.2340000
 -28.9690000  45.0440000   0.1590000 -27.9660000  45.2010000  -0.2430000
 -29.4680000  44.3100000  -0.4770000 -29.7380000  46.3710000   0.1090000
 -29.8640000  46.6900000  -0.9280000 -29.1960000  47.1500000   0.6500000
 -30.7240000  46.2580000   0.5640000  -3.0600000  49.9460000   2.4280000
  -2.6680000  50.8120000   1.8920000  -3.5580000  49.2920000   1.7080000
  -2.2180000  49.4070000   2.8680000  -4.0500000  50.4010000   3.5150000
  -4.8260000  51.0040000   3.0400000  -3.5350000  51.0520000   4.2240000
  -4.7230000  49.2340000   4.2680000  -5.3020000  48.6450000   3.5540000
  -5.4380000  49.6450000   4.9840000  -3.7510000  48.2880000   5.0040000
  -3.1180000  47.7890000   4.2670000  -4.3290000  47.5060000   5.5020000
  -2.8310000  48.9710000   6.0310000  -2.1720000  49.6690000   5.5100000
  -2.1850000  48.2150000   6.4810000  -3.5630000  49.7290000   7.1540000
  -4.1900000  50.5120000   6.7210000  -2.8040000  50.2260000   7.7620000
  -4.4090000  48.8300000   8.0760000  -3.7970000  47.9780000   8.3780000
  -5.2760000  48.4410000   7.5390000  -4.8640000  49.5640000   9.3520000
  -3.9920000  50.0410000   9.8050000  -5.2320000  48.8280000  10.0710000
  -5.9600000  50.6230000   9.1250000  -6.9210000  50.1210000   8.9890000
  -5.7610000  51.1750000   8.2040000  -6.0540000  51.6390000  10.2820000
  -6.9050000  52.3000000  10.1030000  -5.1590000  52.2650000  10.2640000
  -6.1740000  51.0290000  11.6920000  -6.1770000  51.8490000  12.4120000
  -5.2890000  50.4260000  11.9050000  -7.4380000  50.1700000  11.8940000
  -7.4680000  49.3830000  11.1370000  -8.3250000  50.7900000  11.7500000
  -7.4960000  49.5030000  13.2830000  -6.6170000  48.8650000  13.3960000
  -8.3720000  48.8510000  13.3180000  -7.5770000  50.5070000  14.4530000
  -8.4520000  51.1410000  14.2970000  -6.7020000  51.1620000  14.4510000
  -7.7000000  49.8440000  15.8420000  -8.0410000  50.5960000  16.5570000
  -8.4500000  49.0520000  15.8240000  -6.3870000  49.2810000  16.3350000
  -5.7250000  48.4640000  15.7190000  -6.0410000  49.7640000  17.5450000
  -4.6840000  49.5430000  18.0330000  -4.3370000  48.5400000  17.7720000
  -4.7100000  49.6040000  19.1240000  -3.6830000  50.6220000  17.5130000
  -2.6920000  50.3930000  17.9140000  -4.0520000  52.0540000  17.9890000
  -3.1970000  52.7170000  17.8380000  -4.2750000  52.0240000  19.0590000
  -5.1970000  52.6010000  17.2710000  -6.1170000  53.7730000  17.8940000
  -7.2340000  52.9570000  18.7140000  -8.0690000  53.6200000  19.6840000
  -9.0720000  53.1880000  19.6380000  -8.1480000  54.6810000  19.4340000
  -7.4770000  53.4480000  21.1030000  -8.0660000  54.0490000  21.7980000
  -6.4540000  53.8270000  21.1120000  -7.4250000  52.0610000  21.7000000
  -6.4440000  51.1870000  20.9890000  -6.7620000  51.0860000  19.9500000
  -6.4260000  50.2120000  21.4770000  -5.4630000  51.6610000  21.0410000
  -6.9920000  52.1700000  23.1240000  -7.7170000  52.7780000  23.6670000
  -6.0070000  52.6390000  23.1550000  -6.9460000  51.1680000  23.5530000
  -8.7690000  51.4080000  21.6720000  -9.4830000  52.0590000  22.1790000
  -8.7000000  50.4490000  22.1870000  -9.0570000  51.2560000  20.6310000
  -5.3010000  54.5650000  18.8580000  -6.7920000  54.4880000  16.7750000
  -3.6080000  50.6310000  16.0580000  -2.9590000  49.6430000  15.4170000
  -2.3740000  48.7330000  15.9800000  -3.0110000  49.8200000  13.9170000
  -3.7340000  49.1170000  13.4980000  -3.3760000  50.8270000  13.7020000
  -1.6260000  49.6130000  13.2730000  -0.8840000  50.1970000  13.8220000
  -1.3410000  48.5630000  13.3720000  -1.5660000  50.0080000  11.7840000
  -0.6040000  49.6830000  11.3830000  -2.3400000  49.4700000  11.2330000
  -1.7240000  51.5280000  11.5690000  -2.7260000  51.8330000  11.8790000
  -1.0160000  52.0560000  12.2110000  -1.5130000  51.9950000  10.1170000
  -2.2400000  51.4980000   9.4710000  -1.7210000  53.0660000  10.0760000
  -0.0920000  51.7450000   9.5760000   0.6320000  52.0820000  10.3200000
   0.0680000  50.6740000   9.4320000   0.1980000  52.4870000   8.2560000
   0.0590000  53.5600000   8.4070000   1.2510000  52.3380000   8.0100000
  -0.6270000  51.9940000   7.0850000  -0.2270000  51.1110000   6.5940000
  -1.7150000  52.5690000   6.5790000  -2.1810000  52.1220000   5.7040000
  -2.4600000  53.7640000   7.1410000  -1.9450000  54.1960000   8.0020000
  -2.5290000  54.5410000   6.3770000  -3.8770000  53.3310000   7.5580000
  -4.3820000  52.8830000   6.6990000  -3.7890000  52.5430000   8.3090000
  -4.7560000  54.4510000   8.1490000  -5.6840000  54.0060000   8.5140000
  -4.2520000  54.8780000   9.0190000  -5.1100000  55.5840000   7.1690000
  -5.7930000  56.2730000   7.6710000  -4.2080000  56.1540000   6.9350000
  -5.7560000  55.1150000   5.8500000  -6.0320000  56.0010000   5.2750000
  -5.0070000  54.5730000   5.2690000  -6.9960000  54.2140000   6.0090000
  -6.6890000  53.2480000   6.4160000  -7.6850000  54.6620000   6.7280000
  -7.7460000  53.9790000   4.6800000  -8.4980000  53.2020000   4.8370000
  -8.2820000  54.8870000   4.3960000  -6.8350000  53.5680000   3.5100000
  -6.1740000  54.3890000   3.2250000  -7.4390000  53.3050000   2.6390000
  -6.2250000  52.7060000   3.7860000 -34.6630000  36.4640000   1.4830000
 -34.0680000  35.5530000   1.5770000 -33.9810000  37.3090000   1.3720000
 -35.2790000  36.3920000   0.5840000 -35.5450000  36.6510000   2.7240000
 -34.8930000  36.7900000   3.5890000 -36.1190000  35.7380000   2.8940000
 -36.5160000  37.8400000   2.5800000 -37.1830000  37.6510000   1.7370000
 -35.9570000  38.7500000   2.3490000 -37.3650000  38.0680000   3.8460000
 -37.8320000  37.1220000   4.1270000 -38.1700000  38.7690000   3.6150000
 -36.5390000  38.6270000   5.0220000 -36.2220000  39.6450000   4.7840000
 -35.6310000  38.0350000   5.1510000 -37.2860000  38.6300000   6.3680000
 -38.1610000  39.2810000   6.3090000 -36.6200000  39.0580000   7.1200000
 -37.7090000  37.2160000   6.8140000 -37.0020000  36.4850000   6.4180000
 -38.6870000  36.9790000   6.3910000 -37.7450000  37.0440000   8.3420000
 -36.7280000  37.1770000   8.7180000 -38.0370000  36.0180000   8.5730000
 -38.6950000  38.0210000   9.0650000 -39.6920000  37.9440000   8.6260000
 -38.3490000  39.0460000   8.9140000 -38.7980000  37.7480000  10.5790000
 -39.2580000  36.7700000  10.7360000 -39.4630000  38.4920000  11.0250000
 -37.4370000  37.7890000  11.3000000 -36.9680000  38.7610000  11.1350000
 -36.7770000  37.0260000  10.8820000 -37.5610000  37.5380000  12.8100000
 -38.0850000  36.5940000  12.9730000 -38.1670000  38.3320000  13.2510000
 -36.1710000  37.4710000  13.4790000 -35.6460000  38.4200000  13.3510000
 -35.5840000  36.7140000  12.9550000 -36.2100000  37.0890000  14.9740000
 -35.2750000  36.5780000  15.2140000 -37.0100000  36.3640000  15.1400000
 -36.3620000  38.2700000  15.9580000 -36.4260000  37.8820000  16.9770000
 -35.4770000  38.9060000  15.9000000 -37.5780000  39.1150000  15.6940000
 -37.5170000  40.2600000  15.2800000 -38.7320000  38.4640000  15.9120000
 -39.9630000  39.2410000  15.8020000 -40.0090000  39.6980000  14.8100000
 -39.9570000  40.0360000  16.5520000 -41.2240000  38.3620000  16.0010000
 -42.0960000  38.9490000  15.7020000 -41.4940000  37.9430000  17.4690000
 -41.9860000  36.9670000  17.4860000 -42.1730000  38.6700000  17.9230000
 -40.2850000  37.9040000  18.2720000 -40.2680000  37.2960000  19.7620000
 -39.8690000  35.7580000  19.5130000 -38.5400000  35.3990000  19.0780000
 -38.2900000  34.4160000  19.4840000 -37.8140000  36.1160000  19.4700000
 -38.4710000  35.3750000  17.5300000 -37.4260000  35.2720000  17.2340000
 -38.8410000  36.3240000  17.1390000 -39.2160000  34.2860000  16.7930000
 -40.6930000  34.4040000  16.9660000 -40.9200000  34.3290000  18.0310000
 -41.1830000  33.6000000  16.4160000 -41.0050000  35.3770000  16.5830000
 -38.9180000  34.4130000  15.3350000 -37.8500000  34.2500000  15.1790000
 -39.1990000  35.4180000  15.0170000 -39.4930000  33.6630000  14.7900000
 -38.7790000  32.9300000  17.2460000 -37.6990000  32.8470000  17.1190000
 -39.2900000  32.1770000  16.6440000 -39.0490000  32.8110000  18.2970000
 -39.1820000  37.9640000  20.5320000 -41.6500000  37.3280000  20.3160000
 -41.1600000  37.1770000  15.1560000 -41.4800000  37.3160000  13.8510000
 -41.7600000  38.3760000  13.3200000 -41.4830000  35.9970000  13.1210000
 -41.5120000  36.1940000  12.0470000 -40.5540000  35.4660000  13.3410000
 -42.7000000  35.1510000  13.5470000 -42.7540000  35.1490000  14.6380000
 -43.6140000  35.6270000  13.1880000 -42.6790000  33.6800000  13.0870000
 -41.7460000  33.2040000  13.3980000 -43.4790000  33.1670000  13.6250000
 -42.9170000  33.4390000  11.5830000 -43.2630000  32.4100000  11.4710000
 -43.7280000  34.0780000  11.2290000 -41.6740000  33.6280000  10.6890000
 -41.4850000  34.6920000  10.5330000 -40.7990000  33.2040000  11.1870000
 -41.8550000  32.9330000   9.3270000 -42.0160000  31.8660000   9.4970000
 -42.7500000  33.3180000   8.8340000 -40.6460000  33.0960000   8.3870000
 -39.7340000  32.8190000   8.9190000 -40.7490000  32.3890000   7.5610000
 -40.5160000  34.5090000   7.8520000 -39.9540000  35.1950000   8.4810000
 -40.9450000  34.9100000   6.6600000 -40.7550000  35.9300000   6.3350000
 -41.8160000  34.0800000   5.7410000 -41.1900000  33.4870000   5.0710000
 -42.4220000  33.3850000   6.3260000 -42.7440000  34.9670000   4.8910000
 -43.2150000  35.7180000   5.5290000 -42.1510000  35.4990000   4.1450000
 -43.8380000  34.1270000   4.2040000 -43.3780000  33.4210000   3.5100000
 -44.3460000  33.5350000   4.9670000 -44.9040000  34.9690000   3.4770000
 -45.6970000  34.3040000   3.1280000 -45.3580000  35.6530000   4.1980000
 -44.3850000  35.7920000   2.2830000 -45.1890000  36.4410000   1.9290000
 -43.5730000  36.4440000   2.6120000 -43.8920000  34.9280000   1.1090000
 -43.1100000  34.2480000   1.4520000 -44.7180000  34.3200000   0.7330000
 -43.3360000  35.7980000  -0.0310000 -44.1250000  36.4580000  -0.3980000
 -42.5380000  36.4360000   0.3550000 -42.7920000  34.9520000  -1.1930000
 -42.4450000  35.5970000  -2.0030000 -43.5700000  34.2910000  -1.5810000
 -41.9530000  34.3360000  -0.8600000  11.0010000  14.0860000   1.1790000
  10.2460000  14.8670000   1.2930000  11.1400000  13.8900000   0.1140000
  11.9420000  14.4510000   1.5950000  10.5530000  12.8080000   1.9040000
   9.5850000  12.4930000   1.5080000  10.4190000  13.0410000   2.9620000
  11.5690000  11.6620000   1.7390000  12.5300000  11.9750000   2.1510000
  11.7180000  11.4680000   0.6750000  11.1410000  10.3490000   2.4230000
  11.9010000   9.5890000   2.2320000  10.2100000   9.9920000   1.9760000
  10.9500000  10.5060000   3.9410000  10.1040000  11.1730000   4.1220000
  11.8370000  10.9770000   4.3720000  10.7020000   9.1610000   4.6470000
  11.5430000   8.4930000   4.4510000   9.8090000   8.6880000   4.2340000
  10.5410000   9.3180000   6.1700000  11.4350000   9.7970000   6.5760000
  10.4770000   8.3280000   6.6250000   9.2990000  10.1380000   6.5700000
   8.4010000   9.6770000   6.1530000   9.3770000  11.1470000   6.1620000
   9.1610000  10.2390000   8.0960000  10.1070000  10.5930000   8.5120000
   8.9840000   9.2460000   8.5130000   8.0230000  11.1820000   8.5310000
   7.0600000  10.7270000   8.2900000   8.0920000  12.1300000   7.9950000
   8.1200000  11.4460000  10.0400000   9.0310000  12.0140000  10.2390000
   8.2260000  10.4790000  10.5360000   6.9120000  12.1930000  10.6400000
   6.0290000  11.5550000  10.5670000   6.7110000  13.0960000  10.0600000
   7.1340000  12.5820000  12.1170000   6.1910000  12.9310000  12.5430000
   7.8410000  13.4120000  12.1650000   7.6810000  11.4100000  12.9520000
   8.6510000  11.1170000  12.5440000   7.0110000  10.5530000  12.8610000
   7.8900000  11.7360000  14.4400000   6.9260000  11.8740000  14.9350000
   8.4470000  12.6700000  14.5440000   8.6690000  10.6420000  15.1400000
   9.3400000   9.7940000  14.5710000   8.5920000  10.7450000  16.4810000
   9.6040000  10.0410000  17.2670000   9.7150000   9.0150000  16.9070000
   9.2420000   9.9820000  18.2970000  10.9910000  10.7690000  17.2380000
  11.7310000  10.0680000  16.8450000  11.4090000  11.2170000  18.6600000
  12.3300000  11.8020000  18.5940000  11.5930000  10.3450000  19.2930000
  10.3690000  12.0300000  19.2640000  10.6910000  13.0490000  20.4630000
  11.4650000  14.2360000  19.7010000  10.7800000  15.1230000  18.7940000
  10.0090000  14.5720000  18.2500000  11.5060000  15.4990000  18.0690000
  10.1600000  16.3130000  19.5640000   9.3230000  15.9570000  20.1670000
   9.7710000  17.0250000  18.8340000  11.0430000  17.1070000  20.5000000
  11.1180000  16.4500000  21.8370000  10.1070000  16.3490000  22.2340000
  11.7330000  17.0620000  22.4980000  11.5670000  15.4640000  21.7040000
  12.4300000  17.2540000  19.9750000  12.3810000  17.6590000  18.9630000
  12.8940000  16.2670000  19.9670000  12.9910000  17.9200000  20.6320000
  10.4580000  18.4680000  20.6870000  10.4150000  18.9710000  19.7200000
  11.0920000  19.0280000  21.3760000   9.4550000  18.3580000  21.1040000
   9.4070000  13.5660000  21.0090000  11.6540000  12.4010000  21.3930000
  10.9370000  11.9470000  16.3750000  12.0590000  12.4610000  15.8470000
  13.1740000  12.0070000  16.0280000  11.7700000  13.7160000  15.0570000
  10.6890000  13.8370000  14.9610000  12.1300000  14.5670000  15.6390000
  12.4050000  13.7630000  13.6480000  12.2180000  14.7610000  13.2470000
  13.4880000  13.6480000  13.7230000  11.8430000  12.7260000  12.6530000
  12.2550000  11.7450000  12.8980000  10.7590000  12.6560000  12.7660000
  12.1730000  13.0630000  11.1810000  13.2280000  13.3320000  11.0950000
  12.0150000  12.1630000  10.5840000  11.3060000  14.2070000  10.6090000
  10.2540000  13.9380000  10.7250000  11.4630000  15.1140000  11.1970000
  11.5590000  14.5520000   9.1220000  10.8160000  15.2930000   8.8200000
  12.5390000  15.0220000   9.0140000  11.4870000  13.3420000   8.1680000
  12.4550000  12.8370000   8.1370000  10.7690000  12.6250000   8.5710000
  11.0270000  13.7280000   6.7750000   9.9580000  13.6140000   6.6140000
  11.7820000  14.1330000   5.7590000  11.3020000  14.3510000   4.8080000
  13.2760000  14.3820000   5.7730000  13.4510000  15.4600000   5.7530000
  13.7430000  13.9910000   6.6800000  13.9470000  13.7640000   4.5300000
  13.9260000  12.6750000   4.6170000  13.3690000  14.0290000   3.6430000
  15.4020000  14.2450000   4.3430000  15.3890000  15.3010000   4.0660000
  15.9270000  14.1740000   5.2970000  16.2070000  13.4510000   3.2900000
  17.1630000  13.9540000   3.1320000  16.4380000  12.4650000   3.6990000
  15.5130000  13.2520000   1.9280000  16.1620000  12.6330000   1.3040000
  14.5900000  12.6860000   2.0690000  15.1930000  14.5640000   1.1870000
  14.5320000  15.1730000   1.8070000  16.1130000  15.1350000   1.0410000
  14.5100000  14.3340000  -0.1770000  13.6040000  13.7430000  -0.0300000
  14.2000000  15.2990000  -0.5820000  15.4010000  13.6300000  -1.2160000
  14.8670000  13.5380000  -2.1640000  15.6760000  12.6280000  -0.8820000
  16.3140000  14.2020000  -1.3940000 -30.2880000 -42.6910000  -0.7890000
 -30.8800000 -42.3460000  -1.6400000 -30.9760000 -42.9020000   0.0320000
 -29.7840000 -43.6170000  -1.0740000 -29.2650000 -41.6120000  -0.3940000
 -29.7990000 -40.7030000  -0.1100000 -28.6600000 -41.3700000  -1.2700000
 -28.3200000 -42.0290000   0.7500000 -27.6240000 -41.2060000   0.9310000
 -27.7210000 -42.8840000   0.4280000 -29.0450000 -42.3780000   2.0640000
 -29.8210000 -43.1240000   1.8770000 -29.5460000 -41.4790000   2.4290000
 -28.1260000 -42.9250000   3.1740000 -27.8330000 -43.9470000   2.9280000
 -28.7070000 -42.9720000   4.0980000 -26.8560000 -42.0870000   3.4090000
 -27.1160000 -41.0270000   3.4550000 -26.1880000 -42.2220000   2.5560000
 -26.0950000 -42.4750000   4.6920000 -25.0920000 -42.0450000   4.6510000
 -25.9770000 -43.5600000   4.7310000 -26.7970000 -41.9710000   5.9670000
 -27.7100000 -42.5480000   6.1260000 -27.0930000 -40.9300000   5.8270000
 -25.9250000 -42.0520000   7.2340000 -26.5490000 -41.7940000   8.0920000
 -25.1350000 -41.3010000   7.1720000 -25.2890000 -43.4370000   7.4590000
 -24.4590000 -43.5750000   6.7630000 -26.0260000 -44.2130000   7.2390000
 -24.7880000 -43.6430000   8.9000000 -24.3560000 -44.6430000   8.9780000
 -25.6540000 -43.6170000   9.5660000 -23.7500000 -42.5980000   9.3630000
 -24.2130000 -41.6090000   9.3630000 -22.9250000 -42.5640000   8.6480000
 -23.1810000 -42.8720000  10.7720000 -22.5430000 -42.0330000  11.0570000
 -22.5530000 -43.7650000  10.7510000 -24.2870000 -43.0570000  11.8280000
 -24.8010000 -44.0030000  11.6480000 -25.0260000 -42.2620000  11.7060000
 -23.7800000 -43.0340000  13.2840000 -23.1830000 -42.1350000  13.4480000
 -23.1420000 -43.8990000  13.4820000 -24.9380000 -43.0350000  14.2570000
 -26.0160000 -43.5550000  14.0200000 -24.6670000 -42.3450000  15.3870000
 -25.7170000 -42.2010000  16.3930000 -26.6990000 -42.1460000  15.9160000
 -25.5550000 -41.2550000  16.9150000 -25.6950000 -43.3450000  17.4460000
 -26.5960000 -43.2550000  18.0580000 -24.4640000 -43.2600000  18.3820000
 -24.0630000 -42.2440000  18.3610000 -23.6810000 -43.9420000  18.0380000
 -24.8270000 -43.5640000  19.7630000 -25.2290000 -45.0560000  20.2690000
 -26.7390000 -45.2490000  19.7330000 -27.8250000 -44.5350000  20.3570000
 -27.5900000 -43.4670000  20.3510000 -27.9320000 -44.8580000  21.3960000
 -29.1380000 -44.7640000  19.5700000 -29.0020000 -44.4380000  18.5380000
 -29.9140000 -44.1430000  20.0180000 -29.7040000 -46.1640000  19.5050000
 -29.8080000 -46.7750000  20.8640000 -28.8020000 -46.8880000  21.2700000
 -30.2860000 -47.7520000  20.7710000 -30.4060000 -46.1200000  21.4990000
 -31.0750000 -46.1050000  18.9190000 -31.0060000 -45.6720000  17.9200000
 -31.7080000 -45.4920000  19.5620000 -31.4720000 -47.1200000  18.8600000
 -28.8850000 -47.0550000  18.6320000 -28.8650000 -46.6230000  17.6310000
 -29.3410000 -48.0460000  18.6130000 -27.8760000 -47.1080000  19.0460000
 -24.3540000 -46.0550000  19.5970000 -25.2590000 -45.0370000  21.7590000
 -25.6570000 -44.6440000  16.7990000 -26.8040000 -45.2090000  16.3870000
 -27.9050000 -44.7030000  16.5270000 -26.5550000 -46.5560000  15.7460000
 -25.5650000 -46.5460000  15.2880000 -26.5430000 -47.3190000  16.5280000
 -27.5950000 -46.9130000  14.6680000 -28.5880000 -46.9670000  15.1180000
 -27.6120000 -46.1240000  13.9140000 -27.2570000 -48.2610000  14.0020000
 -26.2800000 -48.1920000  13.5180000 -27.1770000 -49.0270000  14.7760000
 -28.3010000 -48.7220000  12.9680000 -28.0200000 -49.7160000  12.6130000
 -29.2720000 -48.8190000  13.4590000 -28.4340000 -47.7800000  11.7560000
 -28.7780000 -46.7980000  12.0880000 -27.4560000 -47.6500000  11.2880000
 -29.4240000 -48.3440000  10.7190000 -29.0790000 -49.3320000  10.4060000
 -30.4010000 -48.4720000  11.1900000 -29.5840000 -47.4690000   9.4640000
 -28.6190000 -47.3830000   8.9620000 -30.2590000 -47.9890000   8.7810000
 -30.1700000 -46.1080000   9.7880000 -30.9700000 -46.1090000  10.5240000
 -29.7860000 -44.9560000   9.2460000 -30.2730000 -44.0330000   9.5490000
 -28.6840000 -44.7970000   8.2180000 -28.3630000 -43.7540000   8.1890000
 -27.8100000 -45.3800000   8.5170000 -29.1320000 -45.2380000   6.8090000
 -28.2670000 -45.2180000   6.1430000 -29.4690000 -46.2760000   6.8570000
 -30.2440000 -44.3580000   6.2000000 -31.0660000 -44.2360000   6.9080000
 -29.8340000 -43.3660000   6.0010000 -30.7890000 -44.9280000   4.8790000
 -31.2840000 -44.1280000   4.3250000 -29.9550000 -45.2760000   4.2670000
 -31.8020000 -46.0640000   5.1120000 -31.3940000 -46.7950000   5.8130000
 -32.6970000 -45.6420000   5.5750000 -32.2030000 -46.7860000   3.8150000
 -33.1040000 -47.3740000   4.0030000 -32.4460000 -46.0540000   3.0420000
 -31.1000000 -47.7210000   3.2970000 -30.2160000 -47.1420000   3.0210000
 -30.8110000 -48.4150000   4.0890000 -31.5790000 -48.5230000   2.0840000
 -30.8060000 -49.2160000   1.7470000 -31.8300000 -47.8520000   1.2600000
 -32.4670000 -49.1010000   2.3510000   1.6600000  14.2300000   3.5910000
   1.5890000  14.2890000   2.5030000   0.6550000  14.0970000   3.9970000
   2.2610000  13.3570000   3.8540000   2.2960000  15.5110000   4.1530000
   1.6840000  16.3680000   3.8620000   3.2840000  15.6470000   3.7090000
   2.4220000  15.4690000   5.6870000   3.0560000  14.6280000   5.9760000
   1.4340000  15.3000000   6.1190000   3.0200000  16.7750000   6.2450000
   2.3840000  17.6150000   5.9550000   3.9940000  16.9450000   5.7810000
   3.2020000  16.7750000   7.7770000   3.6170000  17.7410000   8.0720000
   3.9430000  16.0190000   8.0460000   1.9190000  16.5200000   8.5950000
   2.1640000  16.6400000   9.6520000   1.5990000  15.4840000   8.4590000
   0.7580000  17.4640000   8.2190000   0.4370000  17.2450000   7.1990000
   1.1110000  18.4970000   8.2300000  -0.4690000  17.3440000   9.1440000
  -0.7880000  16.3010000   9.1990000  -1.2890000  17.9100000   8.6970000
  -0.2090000  17.8880000  10.5610000   0.2020000  18.8970000  10.4860000
   0.5350000  17.2670000  11.0660000  -1.4900000  17.9330000  11.4130000
  -1.8770000  16.9170000  11.5200000  -2.2490000  18.5240000  10.8950000
  -1.2290000  18.5500000  12.8010000  -0.7850000  19.5380000  12.6630000
  -0.4800000  17.9510000  13.3230000  -2.4940000  18.7170000  13.6730000
  -3.1170000  19.4760000  13.1950000  -2.2070000  19.1250000  14.6440000
  -3.3770000  17.4670000  13.8900000  -3.5570000  16.9670000  12.9360000
  -4.3540000  17.8130000  14.2340000  -2.8760000  16.4340000  14.9220000
  -3.6200000  15.6360000  14.9740000  -2.8390000  16.8950000  15.9120000
  -1.5030000  15.8180000  14.5930000  -0.7070000  16.5230000  14.8450000
  -1.4390000  15.6040000  13.5240000  -1.2590000  14.5400000  15.3430000
  -1.7060000  13.4660000  14.9820000  -0.4740000  14.7160000  16.4200000
  -0.0850000  13.5260000  17.1690000   0.5210000  12.8790000  16.5310000
  -0.9800000  12.9820000  17.4790000   0.7300000  13.9170000  18.4230000
   0.9870000  13.0050000  18.9680000  -0.1050000  14.7980000  19.3780000
  -0.9010000  14.2010000  19.8300000  -0.5640000  15.6130000  18.8140000
   0.7280000  15.3600000  20.4280000   0.1720000  16.5210000  21.3960000
   0.1870000  17.8180000  20.4450000   1.4290000  18.3830000  19.9760000
   2.2560000  18.0360000  20.6020000   1.3770000  19.4710000  20.0590000
   1.6730000  17.9570000  18.5060000   1.5870000  16.8720000  18.4310000
   2.6930000  18.2320000  18.2330000   0.7860000  18.5380000  17.4260000
   0.8090000  20.0330000  17.4560000   0.3590000  20.3700000  18.3910000
   0.2300000  20.4090000  16.6110000   1.8430000  20.3730000  17.3850000
   1.3010000  18.0890000  16.0970000   1.2660000  16.9990000  16.0610000
   2.3270000  18.4400000  15.9800000   0.6720000  18.5170000  15.3150000
  -0.6290000  18.0750000  17.5430000  -0.6570000  16.9950000  17.3890000
  -1.2300000  18.5820000  16.7870000  -0.9930000  18.3270000  18.5400000
  -1.2440000  16.2170000  21.7410000   1.1460000  16.7220000  22.5040000
   1.9280000  14.6410000  18.0060000   3.1280000  14.0360000  18.1330000
   3.2890000  12.9040000  18.5550000   4.2770000  14.9000000  17.6650000
   4.3480000  15.7670000  18.3250000   5.2050000  14.3340000  17.7640000
   4.1320000  15.3890000  16.2070000   3.3110000  16.1070000  16.1600000
   5.0400000  15.9270000  15.9280000   3.8700000  14.2740000  15.1740000
   4.6680000  13.5290000  15.2160000   2.9380000  13.7710000  15.4390000
   3.7790000  14.8380000  13.7400000   3.3330000  15.8340000  13.7770000
   4.7870000  14.9610000  13.3400000   2.9390000  13.9820000  12.7680000
   2.9620000  14.4620000  11.7880000   3.3800000  12.9890000  12.6570000
   1.4750000  13.8590000  13.2410000   1.3890000  13.0420000  13.9600000
   1.2040000  14.7770000  13.7660000   0.4460000  13.6570000  12.1150000
  -0.5510000  13.6840000  12.5600000   0.5160000  14.4980000  11.4220000
   0.6030000  12.3440000  11.3800000   1.1460000  11.5630000  11.9050000
   0.1660000  12.1330000  10.1430000   0.3390000  11.1700000   9.6680000
  -0.6120000  13.1410000   9.3210000  -1.0650000  13.9020000   9.9600000
   0.0720000  13.6470000   8.6370000  -1.7150000  12.4720000   8.4860000
  -1.2460000  11.7840000   7.7800000  -2.3690000  11.8870000   9.1360000
  -2.5520000  13.5280000   7.7330000  -3.0570000  14.1610000   8.4650000
  -1.8860000  14.1810000   7.1660000  -3.6150000  12.9360000   6.7840000
  -4.3460000  12.3790000   7.3750000  -4.1540000  13.7560000   6.3050000
  -3.0510000  12.0060000   5.6930000  -2.6070000  11.1320000   6.1740000
  -3.8840000  11.6490000   5.0820000  -1.9930000  12.6610000   4.7830000
  -2.4470000  13.4910000   4.2370000  -1.1900000  13.0770000   5.3950000
  -1.3560000  11.6750000   3.7840000  -0.5850000  12.2000000   3.2170000
  -0.8600000  10.8720000   4.3330000  -2.3600000  11.0650000   2.7950000
  -1.8310000  10.4510000   2.0620000  -2.8940000  11.8550000   2.2620000
  -3.0870000  10.4330000   3.3090000  11.6770000 -16.0190000   1.4210000
  10.6240000 -16.1400000   1.1620000  12.1850000 -16.9720000   1.2580000
  12.1150000 -15.2730000   0.7550000  11.8180000 -15.5810000   2.8880000
  11.3580000 -16.3320000   3.5330000  11.2710000 -14.6470000   3.0280000
  13.2930000 -15.3890000   3.2880000  13.7330000 -14.6070000   2.6650000
  13.8430000 -16.3100000   3.0810000  13.4940000 -15.0180000   4.7690000
  14.5640000 -14.9050000   4.9530000  13.1460000 -15.8410000   5.3980000
  12.7710000 -13.7210000   5.1850000  11.6910000 -13.8730000   5.1480000
  13.0200000 -12.9230000   4.4820000  13.1720000 -13.2880000   6.6050000
  14.2460000 -13.0920000   6.6200000  12.9720000 -14.1070000   7.3000000
  12.4440000 -12.0220000   7.0890000  11.3640000 -12.1760000   7.0420000
  12.6910000 -11.1900000   6.4270000  12.8490000 -11.6710000   8.5330000
  13.9380000 -11.6150000   8.5960000  12.5230000 -12.4760000   9.1950000
  12.2530000 -10.3330000   9.0060000  11.1620000 -10.3760000   8.9590000
  12.5750000  -9.5450000   8.3210000  12.6930000  -9.9510000  10.4320000
  12.4320000  -8.9040000  10.6010000  13.7790000 -10.0290000  10.5070000
  12.0330000 -10.8170000  11.5250000  12.1900000 -11.8740000  11.3000000
  10.9540000 -10.6490000  11.5050000  12.5820000 -10.5390000  12.9390000
  13.6330000 -10.8330000  12.9620000  12.0730000 -11.1830000  13.6590000
  12.4870000  -9.0670000  13.3900000  13.1500000  -8.4850000  12.7470000
  12.8930000  -8.9820000  14.4010000  11.0950000  -8.3960000  13.3650000
  10.6820000  -8.4230000  12.3540000  11.2430000  -7.3420000  13.6090000
  10.0700000  -8.9620000  14.3710000   9.2550000  -8.2480000  14.5060000
  10.5450000  -9.0940000  15.3450000   9.4710000 -10.2680000  13.9160000
   8.7460000 -10.3860000  12.9460000   9.8430000 -11.2850000  14.7150000
   9.4550000 -12.6310000  14.3280000   9.7880000 -12.8220000  13.3050000
   8.3670000 -12.7240000  14.3670000  10.1150000 -13.6620000  15.2720000
   9.7350000 -14.6620000  15.0490000   9.8120000 -13.3690000  16.7540000
   8.7370000 -13.2810000  16.9300000  10.2910000 -12.4260000  17.0290000
  10.3500000 -14.4440000  17.5670000  10.6720000 -14.2230000  19.1260000
  11.7740000 -13.0600000  19.0800000  13.0800000 -13.2970000  18.5260000
  13.0950000 -14.2610000  18.0110000  13.8150000 -13.3250000  19.3360000
  13.4070000 -12.1790000  17.5060000  12.7020000 -12.2330000  16.6750000
  14.4080000 -12.3620000  17.1120000  13.4020000 -10.7430000  17.9860000
  14.1180000 -10.5960000  19.2890000  13.5740000 -11.1680000  20.0410000
  14.1360000  -9.5390000  19.5590000  15.1320000 -10.9800000  19.1750000
  14.0980000  -9.8900000  16.9790000  13.6070000 -10.0180000  16.0130000
  15.1420000 -10.2010000  16.9170000  14.0370000  -8.8500000  17.3050000
  12.0090000 -10.2240000  18.1380000  11.4950000 -10.3030000  17.1790000
  12.0620000  -9.1840000  18.4650000  11.5000000 -10.8280000  18.8900000
   9.4490000 -13.7000000  19.7880000  11.2950000 -15.4660000  19.6520000
  11.5590000 -13.6060000  15.0960000  12.1240000 -14.4310000  14.1960000
  11.4990000 -15.2320000  13.5260000  13.6190000 -14.2280000  14.1160000
  13.8340000 -13.1580000  14.1410000  14.0640000 -14.6640000  15.0130000
  14.2640000 -14.8610000  12.8610000  15.3480000 -14.8160000  12.9880000
  13.9930000 -15.9170000  12.8030000  13.8830000 -14.1500000  11.5420000
  12.7960000 -14.0920000  11.4590000  14.2580000 -13.1250000  11.5740000
  14.4240000 -14.8410000  10.2740000  13.9230000 -15.8030000  10.1430000
  14.1760000 -14.2260000   9.4070000  15.9450000 -15.0660000  10.3270000
  16.4400000 -14.1280000  10.5850000  16.1590000 -15.7720000  11.1330000
  16.5550000 -15.6260000   9.0280000  17.5630000 -15.9850000   9.2450000
  15.9720000 -16.4840000   8.6880000  16.6290000 -14.6080000   7.8820000
  15.6170000 -14.4570000   7.5000000  16.9910000 -13.6520000   8.2670000
  17.5130000 -15.1370000   6.7710000  17.3990000 -16.1990000   6.5670000
  18.4240000 -14.4460000   6.0920000  19.0140000 -14.9580000   5.3360000
  18.6930000 -12.9570000   6.1980000  18.0200000 -12.4710000   6.9070000
  19.7120000 -12.7990000   6.5580000  18.5470000 -12.2660000   4.8290000
  18.7320000 -11.1970000   4.9560000  19.3090000 -12.6490000   4.1470000
  17.1510000 -12.4820000   4.2070000  16.9900000 -13.5520000   4.0540000
  16.3840000 -12.1480000   4.9090000  16.9600000 -11.7820000   2.8480000
  17.7380000 -12.1270000   2.1640000  16.0080000 -12.1070000   2.4240000
  16.9860000 -10.2400000   2.8960000  17.9930000  -9.9070000   3.1550000
  16.7850000  -9.8600000   1.8930000  15.9830000  -9.6010000   3.8810000
  16.3150000  -9.7950000   4.9030000  16.0100000  -8.5180000   3.7460000
  14.5250000 -10.0850000   3.7380000  14.4650000 -11.1460000   3.9880000
  13.9090000  -9.5550000   4.4680000  13.9260000  -9.8670000   2.3380000
  12.8900000 -10.2130000   2.3170000  14.4850000 -10.4210000   1.5810000
  13.9390000  -8.8070000   2.0780000 -49.1400000  14.1990000   2.1810000
 -49.4530000  13.1650000   2.3370000 -48.1160000  14.3110000   2.5440000
 -49.1540000  14.4050000   1.1090000 -50.0830000  15.1580000   2.9250000
 -50.1620000  14.8560000   3.9710000 -51.0780000  15.0580000   2.4860000
 -49.6420000  16.6340000   2.8340000 -50.4730000  17.2730000   3.1400000
 -49.4320000  16.8750000   1.7900000 -48.4070000  16.9880000   3.6900000
 -48.0600000  17.9790000   3.3910000 -47.5940000  16.2910000   3.4790000
 -48.6950000  17.0010000   5.2060000 -48.9580000  15.9930000   5.5330000
 -49.5550000  17.6450000   5.4000000 -47.4930000  17.5100000   6.0290000
 -47.2020000  18.4950000   5.6580000 -46.6390000  16.8470000   5.8780000
 -47.7880000  17.6280000   7.5380000 -48.7440000  18.1360000   7.6810000
 -47.0180000  18.2510000   7.9980000 -47.8120000  16.2600000   8.2440000
 -46.8160000  15.8160000   8.1970000 -48.4830000  15.5900000   7.7010000
 -48.2680000  16.3220000   9.7140000 -48.4070000  15.3000000  10.0740000
 -49.2390000  16.8190000   9.7700000 -47.2640000  17.0390000  10.6360000
 -47.1550000  18.0800000  10.3240000 -46.2870000  16.5620000  10.5370000
 -47.6980000  16.9970000  12.1140000 -47.8710000  15.9610000  12.4110000
 -48.6410000  17.5350000  12.2270000 -46.6400000  17.6180000  13.0450000
 -46.4520000  18.6480000  12.7360000 -45.7010000  17.0700000  12.9390000
 -47.0750000  17.5960000  14.5230000 -47.2190000  16.5610000  14.8410000
 -48.0370000  18.1030000  14.6220000 -46.0280000  18.2690000  15.4340000
 -45.8370000  19.2880000  15.0930000 -45.0880000  17.7220000  15.3330000
 -46.4180000  18.2880000  16.9290000 -45.5270000  18.5020000  17.5240000
 -46.7690000  17.3020000  17.2390000 -47.4690000  19.3140000  17.2950000
 -48.1600000  19.9230000  16.4980000 -47.5330000  19.4890000  18.6280000
 -48.7070000  20.1210000  19.2200000 -48.9890000  21.0060000  18.6440000
 -48.4300000  20.4510000  20.2250000 -49.9190000  19.1460000  19.3580000
 -50.7380000  19.6890000  19.8370000 -49.6460000  17.9130000  20.2560000
 -50.5270000  17.2660000  20.2580000 -49.4790000  18.2640000  21.2780000
 -48.4830000  17.1460000  19.8360000 -47.9530000  15.8780000  20.6820000
 -48.6850000  14.6580000  19.9420000 -48.1450000  14.1200000  18.7220000
 -47.4210000  13.3400000  18.9720000 -47.6260000  14.9050000  18.1660000
 -49.2950000  13.5350000  17.8680000 -49.8100000  12.7650000  18.4440000
 -48.8650000  13.0630000  16.9840000 -50.3660000  14.4780000  17.3650000
 -49.7690000  15.7060000  16.7490000 -49.2880000  16.2900000  17.5350000
 -50.5680000  16.2940000  16.2950000 -49.0440000  15.4060000  15.9900000
 -51.1760000  13.7720000  16.3250000 -51.5940000  12.8670000  16.7670000
 -50.5310000  13.5150000  15.4830000 -51.9820000  14.4290000  15.9970000
 -51.2920000  14.8840000  18.4640000 -51.7420000  13.9860000  18.8900000
 -52.0630000  15.5410000  18.0610000 -50.7110000  15.4050000  19.2270000
 -46.4840000  15.7500000  20.4830000 -48.4820000  15.9540000  22.0730000
 -50.3690000  18.6830000  18.0530000 -51.1140000  19.5300000  17.3120000
 -51.5440000  20.6000000  17.7130000 -51.3830000  18.9970000  15.9300000
 -51.5190000  19.8430000  15.2540000 -50.5080000  18.4380000  15.5910000
 -52.6460000  18.1160000  15.9010000 -52.4950000  17.2200000  16.5060000
 -53.4740000  18.6700000  16.3490000 -53.0460000  17.7220000  14.4680000
 -54.0040000  17.2000000  14.5090000 -53.1990000  18.6340000  13.8870000
 -52.0220000  16.8240000  13.7450000 -51.0230000  17.2600000  13.8090000
 -51.9910000  15.8490000  14.2350000 -52.3810000  16.6540000  12.2580000
 -53.4080000  16.2970000  12.1650000 -52.3330000  17.6320000  11.7750000
 -51.4440000  15.6900000  11.5090000 -51.5570000  15.8620000  10.4370000
 -50.4050000  15.9120000  11.7620000 -51.7480000  14.2100000  11.8040000
 -51.5490000  13.9960000  12.8560000 -52.8090000  14.0150000  11.6350000
 -50.9050000  13.3010000  10.9380000 -49.9710000  12.9710000  11.3850000
 -51.2420000  12.8560000   9.7310000 -50.5650000  12.1850000   9.2090000
 -52.4780000  13.2530000   8.9430000 -53.1750000  12.4120000   8.9360000
 -52.9950000  14.1030000   9.3930000 -52.1190000  13.5770000   7.4800000
 -51.5610000  12.7330000   7.0710000 -53.0340000  13.6570000   6.8890000
 -51.2700000  14.8540000   7.3050000 -50.4580000  14.8340000   8.0350000
 -50.8000000  14.8210000   6.3210000 -52.0260000  16.1950000   7.4480000
 -52.3890000  16.3010000   8.4720000 -51.3120000  17.0040000   7.2810000
 -53.2190000  16.3910000   6.4900000 -54.0420000  15.7490000   6.8130000
 -53.5720000  17.4210000   6.5780000 -52.8850000  16.0960000   5.0150000
 -52.0600000  16.7380000   4.7010000 -52.5550000  15.0600000   4.9130000
 -54.0840000  16.3150000   4.0780000 -54.9370000  15.7270000   4.4240000
 -54.3830000  17.3650000   4.1130000 -53.7720000  15.9170000   2.6280000
 -54.6200000  16.1540000   1.9820000 -53.5720000  14.8460000   2.5600000
 -52.8970000  16.4570000   2.2590000 -27.6370000   2.7110000   2.0250000
 -27.5050000   2.7240000   0.9410000 -26.8950000   3.3780000   2.4690000
 -28.6330000   3.0960000   2.2570000 -27.4780000   1.2800000   2.5620000
 -26.4810000   0.9090000   2.3170000 -28.1980000   0.6380000   2.0510000
 -27.7110000   1.1700000   4.0810000 -27.7340000   0.1100000   4.3440000
 -28.6930000   1.5840000   4.3210000 -26.6330000   1.8820000   4.9270000
 -26.5390000   2.9200000   4.6000000 -25.6670000   1.4010000   4.7600000
 -26.9450000   1.8890000   6.4360000 -27.8980000   2.3990000   6.5950000
 -26.1820000   2.4770000   6.9500000 -27.0010000   0.4860000   7.0690000
 -26.0120000   0.0260000   7.0050000 -27.6940000  -0.1480000   6.5110000
 -27.4550000   0.5290000   8.5390000 -28.4700000   0.9270000   8.5910000
 -26.8040000   1.2100000   9.0920000 -27.4170000  -0.8660000   9.1910000
 -26.3830000  -1.2160000   9.2170000 -27.9780000  -1.5690000   8.5710000
 -27.9960000  -0.9050000  10.6180000 -27.8530000  -1.9100000  11.0190000
 -29.0720000  -0.7260000  10.5760000 -27.3520000   0.1180000  11.5740000
 -27.6370000   1.1260000  11.2640000 -26.2650000   0.0460000  11.5060000
 -27.7810000  -0.1160000  13.0340000 -27.4420000  -1.1070000  13.3420000
 -28.8710000  -0.1180000  13.1000000 -27.2160000   0.9240000  14.0180000
 -26.1280000   0.9600000  13.9220000 -27.4350000   0.5880000  15.0340000
 -27.7950000   2.3410000  13.8300000 -28.8850000   2.3000000  13.8720000
 -27.5150000   2.7250000  12.8460000 -27.2810000   3.3050000  14.9130000
 -26.1900000   3.3000000  14.8770000 -27.5760000   2.9440000  15.9000000
 -27.7690000   4.7540000  14.7300000 -27.2100000   5.4110000  15.4000000
 -27.5710000   5.0780000  13.7060000 -29.2440000   4.9180000  15.0130000
 -30.0920000   4.8370000  14.1410000 -29.4790000   5.2200000  16.3070000
 -30.8550000   5.2650000  16.7920000 -31.5030000   5.7210000  16.0400000
 -30.8780000   5.9050000  17.6780000 -31.4120000   3.8670000  17.1960000
 -32.4450000   4.0300000  17.5120000 -30.6620000   3.2040000  18.3840000
 -31.1350000   2.2450000  18.6120000 -30.7520000   3.8490000  19.2610000
 -29.2520000   2.9740000  18.1230000 -28.3300000   2.1860000  19.1880000
 -28.7780000   0.6530000  18.9730000 -28.4830000  -0.0490000  17.7500000
 -28.6510000   0.6240000  16.9060000 -29.1790000  -0.8870000  17.6570000
 -27.0240000  -0.5730000  17.7440000 -26.3410000   0.2740000  17.8210000
 -26.8370000  -1.0690000  16.7900000 -26.5960000  -1.5510000  18.8130000
 -27.5070000  -2.7350000  18.8630000 -28.5010000  -2.3920000  19.1540000
 -27.1220000  -3.4370000  19.6040000 -27.5340000  -3.1980000  17.8750000
 -25.2180000  -2.0300000  18.4950000 -24.5490000  -1.1680000  18.4740000
 -25.2310000  -2.5250000  17.5230000 -24.9040000  -2.7300000  19.2710000
 -26.5540000  -0.9120000  20.1610000 -25.9240000  -0.0240000  20.1000000
 -26.1510000  -1.6250000  20.8810000 -27.5700000  -0.6260000  20.4360000
 -26.9040000   2.3350000  18.7950000 -28.7390000   2.5830000  20.5660000
 -31.4260000   2.9930000  16.0340000 -32.4380000   2.1180000  15.9040000
 -33.1260000   1.7130000  16.8290000 -32.6440000   1.7090000  14.4660000
 -33.6490000   1.3000000  14.3460000 -32.5870000   2.6150000  13.8580000
 -31.5980000   0.6770000  13.9980000 -30.5970000   1.0060000  14.2840000
 -31.7830000  -0.2680000  14.5110000 -31.6440000   0.4420000  12.4730000
 -31.0490000  -0.4400000  12.2260000 -32.6740000   0.2230000  12.1860000
 -31.1230000   1.6420000  11.6510000 -31.5740000   2.5650000  12.0200000
 -30.0440000   1.7410000  11.7850000 -31.4450000   1.5100000  10.1510000
 -30.8200000   0.7310000   9.7090000 -32.4860000   1.2010000  10.0380000
 -31.2450000   2.8420000   9.4010000 -31.8130000   3.6190000   9.9160000
 -30.1940000   3.1360000   9.4400000 -31.7190000   2.7910000   7.9360000
 -32.7110000   2.3380000   7.8820000 -31.8300000   3.8170000   7.5770000
 -30.7270000   2.0770000   7.0420000 -29.8890000   2.6940000   6.7260000
 -30.8080000   0.8300000   6.5890000 -30.0250000   0.4640000   5.9300000
 -31.8820000  -0.1860000   6.9230000 -32.5890000   0.2100000   7.6550000
 -32.4530000  -0.4130000   6.0200000 -31.2830000  -1.4950000   7.4800000
 -30.7830000  -1.2760000   8.4250000 -32.0990000  -2.1840000   7.7090000
 -30.2770000  -2.2070000   6.5510000 -29.4210000  -1.5520000   6.3730000
 -29.8840000  -3.0770000   7.0810000 -30.8690000  -2.6720000   5.2010000
 -30.7900000  -3.7590000   5.1360000 -31.9330000  -2.4340000   5.1540000
 -30.1510000  -2.0470000   3.9890000 -30.2120000  -0.9580000   4.0550000
 -29.0940000  -2.3210000   4.0240000 -30.7630000  -2.5090000   2.6520000
 -30.6680000  -3.5930000   2.5670000 -31.8310000  -2.2800000   2.6560000
 -30.1270000  -1.8410000   1.4160000 -30.6780000  -2.1540000   0.5270000
 -30.2370000  -0.7580000   1.4950000 -28.6400000  -2.1860000   1.2210000
 -28.2560000  -1.7040000   0.3190000 -28.5070000  -3.2640000   1.1170000
 -28.0460000  -1.8410000   2.0700000 -46.9420000   8.6500000   3.1750000
 -45.9720000   8.9750000   2.7920000 -47.6310000   9.4960000   3.1220000
 -47.3190000   7.8540000   2.5290000 -46.7970000   8.1450000   4.6200000
 -46.4030000   8.9440000   5.2510000 -46.0620000   7.3370000   4.6310000
 -48.1140000   7.6190000   5.2200000 -47.8740000   7.1160000   6.1600000
 -48.5400000   6.8680000   4.5510000 -49.1600000   8.7230000   5.4880000
 -49.3400000   9.2870000   4.5710000 -48.7570000   9.4290000   6.2170000
 -50.5130000   8.1790000   5.9930000 -50.9650000   7.5810000   5.1990000
 -51.1870000   9.0180000   6.1830000 -50.4170000   7.3100000   7.2630000
 -49.7470000   6.4710000   7.0640000 -51.3980000   6.8790000   7.4700000
 -49.9450000   8.0760000   8.5160000 -50.7570000   8.7240000   8.8500000
 -49.1030000   8.7290000   8.2750000 -49.5490000   7.1330000   9.6720000
 -50.3280000   6.3770000   9.7950000 -49.5170000   7.7060000  10.6000000
 -48.1870000   6.4280000   9.4810000 -48.1550000   5.9200000   8.5150000
 -48.0950000   5.6580000  10.2510000 -46.9940000   7.4010000   9.5880000
 -47.0450000   7.9210000  10.5460000 -47.0810000   8.1630000   8.8110000
 -45.6060000   6.7410000   9.4420000 -44.8450000   7.5140000   9.5730000
 -45.4980000   6.3700000   8.4200000 -45.3120000   5.5820000  10.4160000
 -44.2640000   5.2930000  10.3100000 -45.9040000   4.7150000  10.1150000
 -45.5920000   5.8730000  11.9030000 -45.2950000   5.0020000  12.4910000
 -46.6710000   5.9870000  12.0320000 -44.8600000   7.1110000  12.4560000
 -45.0910000   7.9920000  11.8530000 -43.7860000   6.9300000  12.3700000
 -45.1690000   7.4200000  13.9360000 -44.4820000   8.1950000  14.2830000
 -44.9820000   6.5350000  14.5470000 -46.5810000   7.8990000  14.2000000
 -47.5060000   7.8440000  13.4090000 -46.6940000   8.4100000  15.4420000
 -48.0250000   8.6860000  15.9670000 -48.7160000   8.9770000  15.1720000
 -47.9450000   9.5280000  16.6600000 -48.5710000   7.4610000  16.7490000
 -49.5750000   7.7020000  17.1060000 -47.6830000   7.1530000  17.9820000
 -47.6350000   8.0290000  18.6340000 -46.6700000   6.9250000  17.6400000
 -48.1810000   6.0110000  18.7430000 -49.6000000   6.0500000  19.5170000
 -50.6530000   5.6690000  18.3570000 -51.8590000   4.9300000  18.6410000
 -51.6390000   4.1170000  19.3370000 -52.2280000   4.4870000  17.7130000
 -52.9260000   5.8780000  19.2410000 -52.4930000   6.4040000  20.0940000
 -53.7630000   5.2790000  19.6030000 -53.5330000   6.9400000  18.3540000
 -54.5300000   7.7100000  19.1540000 -55.2980000   7.0230000  19.5140000
 -54.9770000   8.4740000  18.5150000 -54.0150000   8.1770000  19.9950000
 -52.5140000   7.9030000  17.8450000 -51.8330000   7.3590000  17.1880000
 -51.9680000   8.3070000  18.6990000 -53.0200000   8.6990000  17.2960000
 -54.2420000   6.3280000  17.1900000 -53.5090000   5.8170000  16.5640000
 -54.7290000   7.1220000  16.6230000 -54.9840000   5.6210000  17.5650000
 -49.5830000   4.9790000  20.5510000 -49.8740000   7.4500000  19.9430000
 -48.6140000   6.2680000  15.9120000 -49.7080000   6.0430000  15.1600000
 -50.6100000   6.8520000  15.0060000 -49.7220000   4.6570000  14.5540000
 -49.5750000   3.9330000  15.3580000 -50.7030000   4.4670000  14.1130000
 -48.6250000   4.4660000  13.4880000 -48.7960000   5.1600000  12.6620000
 -47.6550000   4.7080000  13.9270000 -48.5830000   3.0210000  12.9490000
 -48.4930000   2.3320000  13.7910000 -49.5190000   2.7950000  12.4340000
 -47.3990000   2.7790000  11.9950000 -47.4980000   3.4400000  11.1320000
 -46.4740000   3.0460000  12.5110000 -47.2910000   1.3120000  11.5260000
 -47.2630000   0.6680000  12.4070000 -48.1800000   1.0370000  10.9550000
 -46.0200000   1.0440000  10.6900000 -45.1570000   1.4290000  11.2360000
 -45.8740000  -0.0340000  10.5990000 -46.0330000   1.6640000   9.2780000
 -46.3130000   2.7190000   9.3270000 -45.0160000   1.6400000   8.8830000
 -46.9220000   0.8960000   8.3230000 -46.4830000  -0.0210000   7.9380000
 -48.1190000   1.2680000   7.8830000 -48.6290000   0.6340000   7.1620000
 -48.9080000   2.4810000   8.3340000 -49.8730000   2.1550000   8.7290000
 -48.4010000   3.0080000   9.1440000 -49.1570000   3.4720000   7.1830000
 -49.6460000   4.3540000   7.6010000 -48.2000000   3.7950000   6.7690000
 -50.0470000   2.9120000   6.0580000 -49.5860000   2.0230000   5.6240000
 -51.0070000   2.6120000   6.4830000 -50.2910000   3.9480000   4.9460000
 -50.6670000   4.8730000   5.3880000 -49.3410000   4.1760000   4.4590000
 -51.3090000   3.4410000   3.9070000 -50.9550000   2.5040000   3.4730000
 -52.2480000   3.2150000   4.4180000 -51.5990000   4.4590000   2.7860000
 -52.3900000   4.0570000   2.1500000 -51.9900000   5.3760000   3.2320000
 -50.3870000   4.8170000   1.9010000 -50.7150000   5.5190000   1.1320000
 -49.6310000   5.3300000   2.4990000 -49.7480000   3.6010000   1.2080000
 -48.9530000   3.9270000   0.5340000 -50.4930000   3.0570000   0.6250000
 -49.3120000   2.9190000   1.9420000 -26.0000000  49.9260000  -0.8980000
 -26.8070000  50.4830000  -1.3800000 -25.0580000  50.1990000  -1.3780000
 -25.9570000  50.2270000   0.1510000 -26.2520000  48.4140000  -1.0290000
 -26.3510000  48.1710000  -2.0890000 -27.2040000  48.1620000  -0.5570000
 -25.1180000  47.5520000  -0.4350000 -24.1830000  47.8250000  -0.9290000
 -25.3110000  46.5040000  -0.6750000 -24.9250000  47.6860000   1.0900000
 -24.8120000  48.7400000   1.3540000 -23.9940000  47.1890000   1.3720000
 -26.0750000  47.0640000   1.9040000 -26.0390000  45.9770000   1.8120000
 -27.0310000  47.3940000   1.4910000 -26.0230000  47.4630000   3.3900000
 -26.0010000  48.5530000   3.4590000 -25.1000000  47.0980000   3.8440000
 -27.2290000  46.9220000   4.1810000 -27.1130000  45.8490000   4.3440000
 -28.1350000  47.0640000   3.5880000 -27.4340000  47.6480000   5.5210000
 -28.3680000  47.3040000   5.9700000 -27.5680000  48.7090000   5.3040000
 -26.2880000  47.5110000   6.5410000 -26.5090000  48.1640000   7.3890000
 -25.3600000  47.8800000   6.0990000 -26.0640000  46.0840000   7.0780000
 -25.2950000  46.1300000   7.8520000 -25.6770000  45.4470000   6.2790000
 -27.3470000  45.4520000   7.6550000 -28.0180000  45.2050000   6.8290000
 -27.8660000  46.1770000   8.2850000 -27.0900000  44.1710000   8.4690000
 -26.4040000  43.5200000   7.9220000 -28.0340000  43.6320000   8.5670000
 -26.5450000  44.4520000   9.8820000 -27.2590000  45.0790000  10.4210000
 -25.6100000  45.0110000   9.8170000 -26.3080000  43.1570000  10.6810000
 -25.5590000  42.5510000  10.1660000 -27.2330000  42.5780000  10.7160000
 -25.8370000  43.4580000  12.1180000 -26.6120000  44.0060000  12.6570000
 -24.9540000  44.1000000  12.0840000 -25.4850000  42.2190000  12.9110000
 -25.7710000  41.0770000  12.5930000 -24.7980000  42.5350000  14.0250000
 -24.3020000  41.4580000  14.8730000 -23.7800000  40.7210000  14.2580000
 -25.1430000  40.9640000  15.3670000 -23.3200000  42.0260000  15.9360000
 -22.8400000  41.1960000  16.4610000 -24.0650000  42.8940000  16.9780000
 -24.7600000  42.2610000  17.5360000 -24.6350000  43.6760000  16.4690000
 -23.1270000  43.5180000  17.9010000 -23.6250000  44.2000000  19.2760000
 -24.5850000  45.3880000  18.7780000 -24.0430000  46.6250000  18.2860000
 -23.4520000  46.4210000  17.3890000 -23.3910000  47.0730000  19.0400000
 -25.2070000  47.5840000  17.9400000 -25.8300000  47.1300000  17.1690000
 -24.7850000  48.5060000  17.5360000 -26.1440000  48.0090000  19.0500000
 -25.3940000  48.4940000  20.2470000 -24.8110000  47.6630000  20.6470000
 -26.1120000  48.8410000  20.9910000 -24.7380000  49.3100000  19.9410000
 -27.0000000  49.1270000  18.5540000 -27.5580000  48.7810000  17.6840000
 -26.3570000  49.9660000  18.2840000 -27.6850000  49.4200000  19.3510000
 -27.0500000  46.8950000  19.4600000 -27.6030000  46.5540000  18.5830000
 -27.7350000  47.2610000  20.2270000 -26.4380000  46.0830000  19.8560000
 -24.4520000  43.2160000  20.0240000 -22.4400000  44.7920000  19.9570000
 -22.2960000  42.8440000  15.2960000 -21.3400000  42.2450000  14.5680000
 -21.2270000  41.0390000  14.4390000 -20.4170000  43.2450000  13.9120000
 -20.1240000  43.9890000  14.6540000 -19.5130000  42.7360000  13.5720000
 -21.0950000  43.9590000  12.7250000 -21.9870000  44.4820000  13.0760000
 -20.4110000  44.7170000  12.3360000 -21.4800000  43.0000000  11.5840000
 -20.5870000  42.4670000  11.2500000 -22.1900000  42.2580000  11.9540000
 -22.1070000  43.7390000  10.3890000 -22.9720000  44.3120000  10.7320000
 -21.3850000  44.4480000   9.9780000 -22.5510000  42.7620000   9.2880000
 -21.6830000  42.2050000   8.9290000 -23.2530000  42.0410000   9.7120000
 -23.2160000  43.4840000   8.1020000 -24.0110000  44.1290000   8.4810000
 -22.4850000  44.1290000   7.6120000 -23.8220000  42.5150000   7.0720000
 -24.5070000  41.8430000   7.5930000 -24.4230000  43.0920000   6.3660000
 -22.7550000  41.6940000   6.3710000 -22.1740000  41.0570000   7.0320000
 -22.4730000  41.6920000   5.0710000 -21.6700000  41.0540000   4.7130000
 -23.1800000  42.4800000   3.9840000 -23.5300000  41.7810000   3.2230000
 -24.0660000  43.0000000   4.3550000 -22.2470000  43.4950000   3.2990000
 -21.4120000  42.9500000   2.8540000 -22.7970000  43.9580000   2.4760000
 -21.6920000  44.6070000   4.2160000 -21.1180000  44.1600000   5.0300000
 -21.0030000  45.2230000   3.6350000 -22.8040000  45.4990000   4.8000000
 -23.3910000  45.9100000   3.9760000 -23.4820000  44.8820000   5.3930000
 -22.2940000  46.6370000   5.7070000 -23.1430000  47.0530000   6.2530000
 -21.6180000  46.2170000   6.4540000 -21.5770000  47.7890000   4.9740000
 -21.2050000  48.4890000   5.7250000 -20.7090000  47.3960000   4.4410000
 -22.4810000  48.5540000   3.9870000 -22.7310000  47.9060000   3.1450000
 -23.4160000  48.8240000   4.4830000 -21.8190000  49.8350000   3.4500000
 -22.4970000  50.3510000   2.7670000 -20.9010000  49.5970000   2.9090000
 -21.5750000  50.5130000   4.2700000  15.3070000  -6.8260000   0.4490000
  14.9420000  -7.5410000  -0.2910000  15.7500000  -7.3880000   1.2740000
  16.0860000  -6.2180000  -0.0160000  14.1480000  -5.9410000   0.9400000
  13.3810000  -6.5640000   1.4040000  13.6890000  -5.4620000   0.0720000
  14.5890000  -4.8370000   1.9190000  13.7340000  -4.1960000   2.1440000
  15.3210000  -4.2070000   1.4080000  15.2140000  -5.3480000   3.2340000
  15.6200000  -4.4950000   3.7820000  16.0630000  -5.9940000   3.0040000
  14.2430000  -6.1100000   4.1590000  14.7990000  -6.4660000   5.0290000
  13.8770000  -7.0000000   3.6440000  13.0320000  -5.2840000   4.6430000
  12.4530000  -5.9030000   5.3330000  12.3810000  -5.0710000   3.7940000
  13.3800000  -3.9540000   5.3470000  12.4520000  -3.4870000   5.6830000
  13.8360000  -3.2680000   4.6300000  14.3190000  -4.1240000   6.5560000
  15.2850000  -4.4900000   6.2020000  13.9060000  -4.8720000   7.2370000
  14.5430000  -2.8080000   7.3220000  13.5860000  -2.4450000   7.7030000
  14.9290000  -2.0540000   6.6330000  15.5310000  -2.9740000   8.4950000
  16.4860000  -3.3360000   8.1080000  15.1490000  -3.7250000   9.1900000
  15.7440000  -1.6440000   9.2450000  14.7810000  -1.2930000   9.6220000
  16.1030000  -0.8910000   8.5400000  16.7310000  -1.7300000  10.4250000
  16.3520000  -2.4390000  11.1640000  16.7640000  -0.7500000  10.9050000
  18.1570000  -2.1420000  10.0020000  18.3920000  -1.6670000   9.0470000
  18.1800000  -3.2200000   9.8330000  19.2760000  -1.7640000  10.9990000
  19.3680000  -0.6770000  11.0520000  20.2190000  -2.1310000  10.5890000
  19.1230000  -2.3330000  12.4260000  20.0850000  -2.2820000  12.9410000
  18.8440000  -3.3870000  12.3660000  18.1110000  -1.5870000  13.2690000
  18.0810000  -0.3720000  13.3870000  17.2370000  -2.4150000  13.8660000
  16.0970000  -1.8410000  14.5730000  15.4900000  -1.2830000  13.8560000
  16.4470000  -1.1460000  15.3410000  15.2060000  -2.9340000  15.2310000
  14.1920000  -2.5270000  15.2460000  15.5860000  -3.2640000  16.7010000
  15.1230000  -4.2160000  16.9710000  15.1810000  -2.4990000  17.3690000
  17.0180000  -3.3330000  16.9350000  17.6550000  -4.4840000  17.8810000
  16.9920000  -4.1720000  19.3190000  17.4080000  -3.0310000  20.0900000
  16.9800000  -2.1300000  19.6420000  18.4970000  -2.9450000  20.0730000
  16.9190000  -3.1830000  21.5500000  15.8290000  -3.2240000  21.5690000
  17.2350000  -2.3030000  22.1120000  17.3960000  -4.3780000  22.3430000
  17.1590000  -4.1220000  23.7920000  17.7310000  -3.2430000  24.0930000
  17.4810000  -4.9970000  24.3590000  16.0920000  -3.9510000  23.9370000
  16.6340000  -5.6040000  21.9670000  16.8020000  -5.7970000  20.9060000
  15.5770000  -5.4150000  22.1570000  16.9890000  -6.4390000  22.5710000
  18.8570000  -4.6320000  22.1500000  19.0260000  -4.8770000  21.1010000
  19.1510000  -5.4690000  22.7840000  19.4080000  -3.7320000  22.4280000
  17.1730000  -5.8220000  17.4340000  19.1220000  -4.2490000  17.9860000
  15.2250000  -4.1560000  14.4350000  14.0760000  -4.7800000  14.1170000
  12.9690000  -4.3830000  14.4290000  14.2770000  -6.0620000  13.3400000
  14.3820000  -6.8760000  14.0600000  13.3760000  -6.2450000  12.7500000
  15.5030000  -6.0600000  12.4010000  15.4170000  -5.2400000  11.6850000
  16.4110000  -5.8980000  12.9860000  15.6280000  -7.4020000  11.6520000
  15.5600000  -8.2170000  12.3760000  14.7880000  -7.5130000  10.9640000
  16.9490000  -7.5630000  10.8790000  17.7860000  -7.4590000  11.5730000
  16.9920000  -8.5780000  10.4780000  17.1190000  -6.5660000   9.7190000
  16.2780000  -6.6690000   9.0300000  17.1120000  -5.5430000  10.1030000
  18.4430000  -6.8180000   8.9710000  19.2710000  -6.6980000   9.6720000
  18.4690000  -7.8500000   8.6160000  18.6780000  -5.8730000   7.7820000
  18.6220000  -4.8380000   8.1260000  19.6910000  -6.0260000   7.4030000
  17.6530000  -6.1040000   6.6940000  16.6720000  -5.6790000   6.8940000
  17.8710000  -6.7330000   5.5460000  17.0630000  -6.8210000   4.8240000
  19.1590000  -7.4220000   5.1510000  19.6430000  -7.8470000   6.0320000
  18.9230000  -8.2620000   4.4950000  20.1590000  -6.4910000   4.4350000
  20.4900000  -5.7050000   5.1160000  21.0400000  -7.0900000   4.1930000
  19.6510000  -5.8610000   3.1220000  20.5180000  -5.6590000   2.4900000
  19.0280000  -6.5840000   2.5920000  18.8810000  -4.5370000   3.3080000
  18.0010000  -4.7000000   3.9350000  19.5190000  -3.8170000   3.8250000
  18.4320000  -3.9460000   1.9600000  19.3090000  -3.7540000   1.3390000
  17.8140000  -4.6790000   1.4380000  17.6270000  -2.6450000   2.1240000
  16.7500000  -2.8350000   2.7460000  18.2360000  -1.9010000   2.6430000
  17.1760000  -2.0850000   0.7630000  18.0600000  -1.8070000   0.1850000
  16.6550000  -2.8620000   0.1980000  16.2480000  -0.8670000   0.9040000
  15.9570000  -0.4960000  -0.0810000  16.7470000  -0.0600000   1.4440000
  15.3420000  -1.1410000   1.4480000 -20.2210000 -49.2290000  -0.1490000
 -20.7930000 -49.6390000  -0.9840000 -19.2170000 -49.6580000  -0.1850000
 -20.1440000 -48.1480000  -0.2790000 -20.9170000 -49.5650000   1.1820000
 -20.9460000 -50.6490000   1.3090000 -21.9520000 -49.2210000   1.1340000
 -20.2440000 -48.9310000   2.4150000 -20.7830000 -49.2600000   3.3060000
 -20.3470000 -47.8460000   2.3590000 -18.7500000 -49.2910000   2.5510000
 -18.2060000 -48.8860000   1.6950000 -18.6290000 -50.3760000   2.5280000
 -18.1000000 -48.7350000   3.8320000 -18.3000000 -47.6640000   3.9100000
 -17.0180000 -48.8550000   3.7480000 -18.5740000 -49.4380000   5.1160000
 -18.3970000 -50.5110000   5.0210000 -19.6470000 -49.2880000   5.2550000
 -17.8260000 -48.9060000   6.3500000 -18.1070000 -47.8650000   6.5250000
 -16.7530000 -48.9220000   6.1480000 -18.1070000 -49.7390000   7.6120000
 -17.8360000 -50.7800000   7.4220000 -19.1730000 -49.7110000   7.8470000
 -17.2980000 -49.2150000   8.8100000 -17.6500000 -48.2130000   9.0630000
 -16.2490000 -49.1290000   8.5160000 -17.3900000 -50.1370000  10.0400000
 -17.0670000 -51.1400000   9.7530000 -18.4280000 -50.2130000  10.3700000
 -16.5090000 -49.6550000  11.2080000 -15.4900000 -49.4930000  10.8490000
 -16.4630000 -50.4430000  11.9630000 -17.0350000 -48.3680000  11.8700000
 -18.0210000 -48.5710000  12.2950000 -17.1570000 -47.5820000  11.1220000
 -16.0940000 -47.8560000  12.9730000 -15.1600000 -47.5350000  12.5070000
 -15.8590000 -48.6690000  13.6640000 -16.6850000 -46.6760000  13.7630000
 -17.1380000 -45.9710000  13.0620000 -15.8800000 -46.1520000  14.2830000
 -17.7330000 -47.1360000  14.7970000 -17.2390000 -47.7000000  15.5910000
 -18.4580000 -47.8040000  14.3280000 -18.5000000 -45.9950000  15.4210000
 -18.3710000 -44.8180000  15.1270000 -19.3800000 -46.4550000  16.3280000
 -20.2790000 -45.4850000  16.9440000 -20.8100000 -44.9440000  16.1560000
 -19.7010000 -44.7610000  17.5240000 -21.3180000 -46.1910000  17.8580000
 -22.1850000 -45.5320000  17.9480000 -20.8190000 -46.4400000  19.3070000
 -21.2530000 -47.3670000  19.6900000 -21.1690000 -45.6200000  19.9390000
 -19.3670000 -46.4950000  19.4020000 -18.6100000 -46.8640000  20.7830000
 -18.3660000 -48.4510000  20.6500000 -17.3330000 -48.9790000  19.7880000
 -17.0530000 -49.9740000  20.1430000 -16.4450000 -48.3430000  19.8440000
 -17.8400000 -49.0570000  18.3270000 -16.9880000 -49.2510000  17.6730000
 -18.2700000 -48.0940000  18.0450000 -18.8730000 -50.1020000  17.9820000
 -18.3350000 -51.4790000  18.1970000 -17.4170000 -51.5940000  17.6180000
 -19.0830000 -52.2010000  17.8650000 -18.1350000 -51.6150000  19.2610000
 -20.1290000 -49.9440000  18.7680000 -20.5340000 -48.9520000  18.5620000
 -19.8870000 -50.0390000  19.8280000 -20.8370000 -50.7180000  18.4670000
 -19.2240000 -49.9540000  16.5390000 -19.6340000 -48.9540000  16.3900000
 -19.9660000 -50.7120000  16.2840000 -18.3230000 -50.0940000  15.9410000
 -17.2930000 -46.1680000  20.8000000 -19.5400000 -46.6440000  21.9260000
 -21.7790000 -47.4450000  17.2670000 -22.5720000 -47.3760000  16.1770000
 -22.8860000 -46.3400000  15.6150000 -23.0240000 -48.7430000  15.7120000
 -22.4720000 -49.5130000  16.2550000 -24.0780000 -48.8620000  15.9720000
 -22.8380000 -48.9520000  14.1930000 -23.2710000 -49.9150000  13.9190000
 -23.3900000 -48.1830000  13.6480000 -21.3550000 -48.9350000  13.7690000
 -20.9250000 -47.9540000  13.9780000 -20.8110000 -49.6640000  14.3740000
 -21.1210000 -49.2830000  12.2880000 -20.0450000 -49.2920000  12.1040000
 -21.4840000 -50.2940000  12.0920000 -21.7890000 -48.3070000  11.3030000
 -22.8720000 -48.4460000  11.3340000 -21.5770000 -47.2800000  11.6080000
 -21.2820000 -48.5240000   9.8630000 -20.2290000 -48.2410000   9.8090000
 -21.3410000 -49.5870000   9.6200000 -22.0740000 -47.7370000   8.8030000
 -21.6530000 -47.9440000   7.8170000 -23.1010000 -48.1050000   8.7880000
 -22.0920000 -46.2480000   9.0780000 -22.7960000 -45.9340000   9.8450000
 -21.4040000 -45.3250000   8.4150000 -21.5420000 -44.2780000   8.6730000
 -20.3390000 -45.5960000   7.3720000 -19.9290000 -46.6000000   7.4970000
 -20.7750000 -45.5430000   6.3720000 -19.1870000 -44.5780000   7.4780000
 -18.8040000 -44.5980000   8.5010000 -18.3660000 -44.9050000   6.8370000
 -19.5700000 -43.1230000   7.1180000 -20.3300000 -42.7640000   7.8150000
 -18.6930000 -42.4890000   7.2650000 -20.0800000 -42.9180000   5.6770000
 -21.0450000 -43.4140000   5.5540000 -20.2480000 -41.8510000   5.5180000
 -19.0990000 -43.4380000   4.6080000 -18.1130000 -43.0010000   4.7780000
 -19.0020000 -44.5210000   4.7140000 -19.5540000 -43.1090000   3.1740000
 -20.5550000 -43.5110000   3.0060000 -19.6180000 -42.0250000   3.0610000
 -18.5970000 -43.6650000   2.1010000 -18.9120000 -43.2940000   1.1230000
 -17.5890000 -43.2830000   2.2780000 -18.5590000 -45.2020000   2.0540000
 -17.9320000 -45.5450000   1.2290000 -19.5640000 -45.6050000   1.9110000
 -18.1460000 -45.6070000   2.9810000   2.1670000  27.7620000   0.5840000
   2.4230000  26.7120000   0.4240000   2.8180000  28.3710000  -0.0450000
   1.1330000  27.9170000   0.2690000   2.3370000  28.1180000   2.0700000
   3.3650000  27.9150000   2.3770000   1.6850000  27.4660000   2.6540000
   1.9770000  29.5740000   2.4120000   1.9880000  29.6840000   3.4990000
   0.9550000  29.7650000   2.0800000   2.9190000  30.6260000   1.7960000
   3.0640000  30.4120000   0.7350000   3.9010000  30.5610000   2.2700000
   2.3590000  32.0570000   1.9220000   1.4300000  32.1050000   1.3500000
   3.0550000  32.7560000   1.4540000   2.0640000  32.5210000   3.3650000
   1.3790000  31.8230000   3.8490000   1.5480000  33.4820000   3.3160000
   3.3310000  32.6880000   4.2250000   3.9660000  33.4520000   3.7710000
   3.9020000  31.7570000   4.2370000   3.0080000  33.0880000   5.6780000
   2.5730000  32.2300000   6.1960000   2.2630000  33.8860000   5.6820000
   4.2640000  33.5780000   6.4230000   4.5890000  34.5160000   5.9680000
   5.0720000  32.8570000   6.2870000   4.0470000  33.8080000   7.9310000
   3.1050000  34.3330000   8.0990000   4.8470000  34.4520000   8.3020000
   4.0760000  32.4920000   8.7300000   5.0080000  31.9710000   8.5040000
   3.2530000  31.8470000   8.4160000   3.9940000  32.7250000  10.2500000
   3.0160000  33.1390000  10.5050000   4.7500000  33.4580000  10.5390000
   4.2340000  31.4260000  11.0410000   5.2100000  31.0270000  10.7570000
   3.4790000  30.6850000  10.7680000   4.2230000  31.6440000  12.5650000
   3.2340000  31.9810000  12.8850000   4.9280000  32.4420000  12.8060000
   4.6260000  30.3830000  13.3560000   4.7790000  30.6540000  14.4030000
   5.5730000  29.9870000  12.9820000   3.5730000  29.3040000  13.3130000
   3.6430000  28.3070000  12.6160000   2.5570000  29.5760000  14.1550000
   1.6300000  28.5140000  14.5280000   1.5200000  27.7770000  13.7270000
   0.6530000  28.9680000  14.7090000   2.1020000  27.8350000  15.8410000
   1.3220000  27.1570000  16.1960000   2.3530000  28.8980000  16.9380000
   1.6550000  29.7260000  16.7930000   3.3710000  29.2880000  16.8540000
   2.1200000  28.3560000  18.2690000   3.3290000  27.9980000  19.2840000
   3.8740000  29.4580000  19.6830000   3.2390000  30.2110000  20.7320000
   3.5600000  29.8080000  21.6960000   2.1540000  30.1050000  20.6590000
   3.6390000  31.7010000  20.6220000   4.7250000  31.7920000  20.6860000
   3.2040000  32.2320000  21.4700000   3.2180000  32.4680000  19.3900000
   4.0820000  32.1350000  18.2200000   5.1050000  32.4310000  18.4580000
   3.7200000  32.6890000  17.3530000   4.0300000  31.0590000  18.0460000
   1.7880000  32.2110000  19.0410000   1.1700000  32.4410000  19.9100000
   1.6790000  31.1630000  18.7570000   1.5150000  32.8610000  18.2090000
   3.3650000  33.9250000  19.6580000   2.7680000  34.1870000  20.5330000
   3.0190000  34.4710000  18.7790000   4.4210000  34.1370000  19.8350000
   2.7350000  27.3630000  20.4930000   4.4060000  27.2730000  18.5590000
   3.3460000  27.1220000  15.5970000   3.3030000  25.7950000  15.3640000
   2.2710000  25.1520000  15.2570000   4.6790000  25.1820000  15.2420000
   5.3620000  25.7270000  15.8980000   4.6490000  24.1490000  15.5930000
   5.2160000  25.2350000  13.7990000   5.1700000  26.2630000  13.4330000
   6.2680000  24.9440000  13.8170000   4.4770000  24.3020000  12.8210000
   4.5800000  23.2710000  13.1670000   3.4120000  24.5440000  12.8140000
   5.0230000  24.4130000  11.3850000   4.8220000  25.4150000  11.0020000
   6.1060000  24.2730000  11.4040000   4.3930000  23.3630000  10.4490000
   4.7050000  22.3700000  10.7800000   3.3060000  23.4050000  10.5460000
   4.7510000  23.5260000   8.9580000   4.3020000  22.6960000   8.4100000
   4.2970000  24.4420000   8.5750000   6.2640000  23.5550000   8.6690000
   6.7040000  24.4700000   9.0710000   6.7390000  22.7180000   9.1850000
   6.5200000  23.4200000   7.1830000   6.3440000  22.4200000   6.7950000
   6.9260000  24.3630000   6.3390000   7.0630000  24.0990000   5.2930000
   7.2040000  25.8150000   6.6580000   6.3010000  26.3950000   6.4550000
   7.4520000  25.9570000   7.7120000   8.3500000  26.3720000   5.7920000
   9.2990000  26.1230000   6.2710000   8.3540000  25.8840000   4.8150000
   8.2580000  27.9020000   5.6050000   8.0480000  28.3650000   6.5710000
   9.2300000  28.2810000   5.2830000   7.1850000  28.3440000   4.5840000
   6.2350000  27.8580000   4.8170000   7.0280000  29.4200000   4.6850000
   7.5600000  28.0420000   3.1180000   8.4390000  28.6340000   2.8560000
   7.8280000  26.9900000   3.0040000   6.4390000  28.3720000   2.1180000
   5.6110000  27.6740000   2.2640000   6.0620000  29.3800000   2.3030000
   6.9460000  28.2830000   0.6660000   7.7390000  29.0180000   0.5150000
   7.3810000  27.2970000   0.4930000   5.8280000  28.5310000  -0.3580000
   6.2280000  28.4960000  -1.3740000   5.3680000  29.5080000  -0.1950000
   5.0570000  27.7630000  -0.2690000  50.6780000  12.0040000   2.3620000
  50.9380000  11.4850000   1.4370000  49.5920000  11.9760000   2.4770000
  51.1320000  11.4640000   3.1950000  51.1750000  13.4590000   2.3080000
  50.7550000  13.9350000   1.4200000  52.2610000  13.4680000   2.1940000
  50.7820000  14.2850000   3.5490000  49.7030000  14.2140000   3.6960000
  51.0160000  15.3360000   3.3610000  51.5010000  13.8370000   4.8340000
  52.5800000  13.9420000   4.7000000  51.2980000  12.7800000   5.0190000
  51.0600000  14.6520000   6.0640000  49.9760000  14.5800000   6.1750000
  51.3110000  15.7040000   5.9160000  51.7370000  14.1320000   7.3440000
  52.8210000  14.1760000   7.2170000  51.4710000  13.0830000   7.4830000
  51.3490000  14.9220000   8.6080000  50.2620000  14.9390000   8.7120000
  51.6920000  15.9540000   8.5120000  51.9800000  14.2770000   9.8560000
  53.0510000  14.1460000   9.6840000  51.5570000  13.2790000   9.9900000
  51.7990000  15.0700000  11.1620000  52.3410000  16.0150000  11.0830000
  52.2700000  14.4960000  11.9620000  50.3320000  15.3540000  11.5470000
  49.7160000  14.4940000  11.2770000  49.9590000  16.2080000  10.9770000
  50.1700000  15.6190000  13.0590000  50.5360000  14.7450000  13.6030000
  49.1080000  15.7190000  13.2920000  50.9200000  16.8730000  13.5580000
  50.3850000  17.7690000  13.2370000  51.9110000  16.9170000  13.1010000
  51.1190000  16.9070000  15.0850000  51.6160000  17.8430000  15.3460000
  51.8000000  16.0990000  15.3620000  49.8300000  16.7760000  15.9200000
  49.3460000  15.8210000  15.7060000  49.1340000  17.5720000  15.6470000
  50.1530000  16.8570000  17.4270000  50.6150000  17.8200000  17.6560000
  50.8810000  16.0850000  17.6860000  48.9480000  16.6770000  18.3230000
  47.8040000  16.5100000  17.9320000  49.2980000  16.6810000  19.6260000
  48.3630000  16.1630000  20.6230000  47.3370000  16.4350000  20.3600000
  48.5940000  16.6350000  21.5810000  48.4810000  14.6160000  20.8030000
  47.6220000  14.2790000  21.3900000  49.7280000  14.1580000  21.6040000
  49.8740000  13.0880000  21.4400000  49.5400000  14.3090000  22.6700000
  50.9340000  14.8960000  21.2540000  52.3300000  14.1690000  20.8920000
  52.1680000  13.7650000  19.3430000  51.6020000  12.5010000  18.9550000
  50.6030000  12.4080000  19.3890000  52.2230000  11.6850000  19.3320000
  51.4970000  12.4450000  17.4120000  50.8960000  13.2890000  17.0680000
  50.9840000  11.5220000  17.1380000  52.7730000  12.4640000  16.5970000
  53.4980000  13.7630000  16.7240000  52.8190000  14.5730000  16.4520000
  54.3670000  13.7500000  16.0660000  53.8120000  13.8780000  17.7630000
  53.6890000  11.3560000  17.0030000  53.1600000  10.4070000  16.9080000
  53.9960000  11.5210000  18.0370000  54.5620000  11.3700000  16.3480000
  52.4270000  12.2750000  15.1550000  51.9380000  11.3070000  15.0330000
  53.3490000  12.3000000  14.5710000  51.7630000  13.0810000  14.8410000
  53.4140000  15.1870000  20.9850000  52.4590000  12.9300000  21.7100000
  48.4640000  13.9370000  19.5110000  47.2700000  13.6840000  18.9390000
  46.1970000  13.8640000  19.4880000  47.4010000  13.1570000  17.5320000
  46.4580000  13.3260000  17.0070000  48.1750000  13.7290000  17.0170000
  47.7470000  11.6540000  17.5110000  48.7450000  11.5060000  17.9290000
  47.0480000  11.1160000  18.1540000  47.6860000  11.0340000  16.1000000
  47.9670000   9.9810000  16.1680000  46.6540000  11.0680000  15.7430000
  48.5970000  11.7320000  15.0710000  48.2990000  12.7780000  14.9670000
  49.6280000  11.7150000  15.4280000  48.5340000  11.0620000  13.6870000
  48.8820000  10.0310000  13.7710000  47.4960000  11.0350000  13.3490000
  49.3910000  11.8110000  12.6480000  49.1470000  12.8740000  12.7020000
  50.4470000  11.7090000  12.9040000  49.1670000  11.3400000  11.1970000
  48.1110000  11.4700000  10.9500000  49.7340000  11.9870000  10.5250000
  49.5250000   9.8830000  11.0010000  49.0560000   9.1990000  11.7030000
  50.2990000   9.3840000  10.0440000  50.4540000   8.3080000  10.0150000
  51.0760000  10.1640000   9.0000000  51.3530000  11.1520000   9.3750000
  52.0130000   9.6380000   8.8080000  50.3250000  10.3140000   7.6600000
  51.0200000  10.7310000   6.9280000  50.0320000   9.3280000   7.2940000
  49.0820000  11.2260000   7.7320000  48.3170000  10.7550000   8.3520000
  49.3560000  12.1710000   8.2070000  48.5000000  11.5240000   6.3370000
  49.2770000  11.9740000   5.7150000  48.2010000  10.5880000   5.8610000
  47.2900000  12.4770000   6.3930000  46.4820000  11.9990000   6.9510000
  47.5690000  13.3860000   6.9300000  46.7890000  12.8570000   4.9860000
  47.5890000  13.3700000   4.4470000  46.5510000  11.9480000   4.4300000
  45.5450000  13.7630000   5.0290000  44.7330000  13.2370000   5.5360000
  45.7680000  14.6620000   5.6080000  45.0710000  14.1740000   3.6270000
  44.1770000  14.7960000   3.7040000  44.8290000  13.2940000   3.0280000
  45.8480000  14.7450000   3.1130000 -19.3420000  53.9550000  -1.7850000
 -19.3170000  54.3550000  -0.7690000 -19.9770000  54.6020000  -2.3940000
 -18.3290000  53.9790000  -2.1920000 -19.8940000  52.5210000  -1.7840000
 -19.9040000  52.1340000  -2.8040000 -20.9260000  52.5370000  -1.4250000
 -19.0570000  51.5940000  -0.8870000 -19.0160000  52.0190000   0.1180000
 -18.0340000  51.5510000  -1.2670000 -19.6310000  50.1680000  -0.8020000
 -19.6480000  49.7160000  -1.7960000 -20.6610000  50.2190000  -0.4430000
 -18.8040000  49.2880000   0.1520000 -18.7050000  49.8120000   1.1050000
 -17.8020000  49.1490000  -0.2580000 -19.4570000  47.9170000   0.4010000
 -19.6000000  47.4130000  -0.5570000 -20.4470000  48.0730000   0.8370000
 -18.6440000  46.9940000   1.3320000 -17.7330000  46.6800000   0.8190000
 -19.2330000  46.0960000   1.5280000 -18.2500000  47.6480000   2.6690000
 -19.1170000  48.1570000   3.0960000 -17.4820000  48.4020000   2.4830000
 -17.7050000  46.6250000   3.6800000 -16.9490000  46.0110000   3.1850000
 -18.5150000  45.9580000   3.9830000 -17.0720000  47.2640000   4.9320000
 -16.2520000  47.9150000   4.6200000 -16.6380000  46.4670000   5.5390000
 -18.0620000  48.0790000   5.7880000 -18.8730000  47.4270000   6.1190000
 -18.5080000  48.8650000   5.1750000 -17.4120000  48.7420000   7.0210000
 -18.1480000  49.4020000   7.4840000 -16.5750000  49.3650000   6.6990000
 -16.9280000  47.7310000   8.0780000 -16.1590000  47.0860000   7.6460000
 -17.7650000  47.0920000   8.3680000 -16.3560000  48.4160000   9.3350000
 -17.1040000  49.0950000   9.7490000 -15.4840000  49.0110000   9.0590000
 -15.9610000  47.3760000  10.4020000 -15.2370000  46.6750000   9.9820000
 -16.8430000  46.8030000  10.6970000 -15.3640000  48.0070000  11.6370000
 -14.1770000  47.9510000  11.9140000 -16.2850000  48.6110000  12.4170000
 -15.8940000  49.0890000  13.7440000 -15.3350000  48.3060000  14.2630000
 -16.8070000  49.2870000  14.3120000 -15.0550000  50.3940000  13.6910000
 -14.1810000  50.2270000  13.0570000 -14.5780000  50.8040000  15.1110000
 -14.0000000  51.7300000  15.0590000 -13.9190000  50.0220000  15.4970000
 -15.7070000  51.0060000  16.0120000 -15.9140000  50.1460000  17.3630000
 -14.9860000  50.9080000  18.4370000 -13.5770000  50.6280000  18.5720000
 -13.0780000  51.5250000  18.9490000 -13.1480000  50.3920000  17.5950000
 -13.3550000  49.4490000  19.5520000 -12.2900000  49.2120000  19.5710000
 -13.8890000  48.5730000  19.1820000 -13.7660000  49.6190000  20.9970000
 -13.2950000  48.4310000  21.7680000 -13.7520000  47.5360000  21.3410000
 -13.5970000  48.5480000  22.8090000 -12.2080000  48.3720000  21.6950000
 -13.1490000  50.8400000  21.5990000 -13.5410000  51.7170000  21.0820000
 -12.0650000  50.7800000  21.4840000 -13.4170000  50.8790000  22.6560000
 -15.2480000  49.7000000  21.1480000 -15.5990000  50.5910000  20.6240000
 -15.4920000  49.7650000  22.2090000 -15.6920000  48.8070000  20.7050000
 -17.3290000  50.3070000  17.7940000 -15.3910000  48.7710000  17.1430000
 -15.8730000  51.4600000  13.1250000 -15.2600000  52.5630000  12.6570000
 -14.0480000  52.7140000  12.6550000 -16.2530000  53.5870000  12.1450000
 -17.0490000  53.0720000  11.6040000 -16.7140000  54.0720000  13.0080000
 -15.6140000  54.6570000  11.2330000 -16.3500000  55.4390000  11.0350000
 -14.7790000  55.1290000  11.7550000 -15.1310000  54.0790000   9.8900000
 -14.4930000  53.2110000  10.0700000 -15.9980000  53.7310000   9.3240000
 -14.3350000  55.1040000   9.0620000 -14.9570000  55.9770000   8.8540000
 -13.4800000  55.4440000   9.6510000 -13.8170000  54.4980000   7.7450000
 -13.0360000  55.1410000   7.3330000 -13.3520000  53.5350000   7.9640000
 -14.9260000  54.3290000   6.6860000 -15.8710000  54.0550000   7.1600000
 -15.0830000  55.2900000   6.1920000 -14.5920000  53.2710000   5.6240000
 -15.3590000  53.3290000   4.8480000 -13.6320000  53.5130000   5.1630000
 -14.5930000  51.8790000   6.2290000 -15.3950000  51.6870000   6.9380000
 -13.6700000  50.9440000   6.0290000 -13.7510000  49.9960000   6.5550000
 -12.5360000  51.0340000   5.0280000 -12.7910000  51.7190000   4.2170000
 -11.6450000  51.4240000   5.5240000 -12.1810000  49.6620000   4.4250000
 -11.4270000  49.8150000   3.6500000 -11.7280000  49.0340000   5.1950000
 -13.3860000  48.9160000   3.8200000 -14.0190000  48.5460000   4.6300000
 -13.9870000  49.6060000   3.2250000 -12.9500000  47.7400000   2.9290000
 -12.4060000  48.1380000   2.0700000 -12.2650000  47.0950000   3.4840000
 -14.1500000  46.9080000   2.4450000 -14.6450000  46.4750000   3.3170000
 -14.8750000  47.5580000   1.9500000 -13.7520000  45.7670000   1.4900000
 -12.9720000  45.1620000   1.9570000 -14.6170000  45.1170000   1.3460000
 -13.2670000  46.2690000   0.1150000 -14.0470000  46.8830000  -0.3380000
 -12.3830000  46.8990000   0.2370000 -12.9210000  45.1150000  -0.8400000
 -12.0960000  44.5200000  -0.4420000 -12.6240000  45.5100000  -1.8140000
 -13.7840000  44.4610000  -0.9800000 -14.7100000 -23.9090000   0.2550000
 -14.2560000 -22.9300000   0.4270000 -15.3560000 -23.8390000  -0.6220000
 -15.3340000 -24.1590000   1.1150000 -13.6260000 -24.9800000   0.0340000
 -13.1240000 -24.7840000  -0.9160000 -14.1040000 -25.9590000  -0.0490000
 -12.5660000 -25.0240000   1.1510000 -12.0960000 -24.0410000   1.2290000
 -11.7870000 -25.7360000   0.8730000 -13.1460000 -25.4380000   2.5150000
 -13.5750000 -26.4380000   2.4280000 -13.9610000 -24.7600000   2.7770000
 -12.1170000 -25.4320000   3.6610000 -11.3280000 -26.1560000   3.4480000
 -12.6200000 -25.7620000   4.5730000 -11.4990000 -24.0380000   3.9010000
 -12.2910000 -23.2880000   3.8600000 -10.7930000 -23.8030000   3.1010000
 -10.7890000 -23.9010000   5.2610000 -11.4870000 -24.1780000   6.0540000
 -10.5430000 -22.8460000   5.4040000  -9.5040000 -24.7430000   5.3950000
  -8.7580000 -24.3900000   4.6800000  -9.7240000 -25.7830000   5.1450000
  -8.9100000 -24.6890000   6.8160000  -8.1010000 -25.4180000   6.8900000
  -9.6840000 -24.9960000   7.5240000  -8.3620000 -23.2960000   7.1960000
  -9.1200000 -22.5310000   7.0150000  -7.5160000 -23.0650000   6.5450000
  -7.9050000 -23.1820000   8.6640000  -7.4190000 -22.2130000   8.8010000
  -7.1590000 -23.9510000   8.8750000  -9.0760000 -23.2960000   9.6610000
  -9.5350000 -24.2830000   9.5730000  -9.8340000 -22.5570000   9.3940000
  -8.6460000 -23.0850000  11.1250000  -8.2300000 -22.0830000  11.2490000
  -7.8530000 -23.7950000  11.3670000  -9.8090000 -23.2890000  12.1160000
  -9.4050000 -23.3140000  13.1300000 -10.2640000 -24.2650000  11.9330000
 -10.8950000 -22.1950000  12.0340000 -11.2720000 -22.1050000  11.0130000
 -10.4780000 -21.2280000  12.3250000 -12.0540000 -22.5270000  12.9420000
 -13.1640000 -22.8150000  12.5300000 -11.7160000 -22.4780000  14.2460000
 -12.5920000 -23.1100000  15.2290000 -13.4530000 -23.5910000  14.7580000
 -12.9590000 -22.3470000  15.9200000 -11.8000000 -24.1850000  16.0110000
 -12.4750000 -24.6740000  16.7180000 -10.6210000 -23.5430000  16.7770000
 -10.9320000 -22.6050000  17.2440000  -9.8270000 -23.3220000  16.0600000
 -10.1020000 -24.4560000  17.7840000 -10.6900000 -24.4870000  19.2930000
  -9.4260000 -24.9950000  20.1540000  -8.2880000 -24.1410000  20.4080000
  -7.7600000 -24.5170000  21.2890000  -8.6320000 -23.1270000  20.6310000
  -7.3300000 -24.1210000  19.1910000  -6.5410000 -23.3910000  19.3780000
  -7.8830000 -23.8000000  18.3060000  -6.6170000 -25.3950000  18.8060000
  -5.7320000 -25.8690000  19.9110000  -5.0160000 -25.0760000  20.1360000
  -5.2070000 -26.7650000  19.5770000  -6.3470000 -26.0920000  20.7840000
  -7.5680000 -26.4870000  18.4410000  -8.2450000 -26.1060000  17.6740000
  -8.1360000 -26.7550000  19.3330000  -7.0020000 -27.3440000  18.0750000
  -5.7640000 -25.1170000  17.6150000  -6.4030000 -24.7750000  16.7990000
  -5.2410000 -26.0320000  17.3360000  -5.0460000 -24.3420000  17.8870000
 -11.0310000 -23.1020000  19.7230000 -11.7430000 -25.5320000  19.3630000
 -11.2260000 -25.1310000  15.0620000 -11.5050000 -26.4430000  15.1660000
 -12.4180000 -26.9070000  15.8260000 -10.5420000 -27.2890000  14.3640000
 -10.8100000 -28.3410000  14.4810000 -10.6380000 -27.0290000  13.3080000
  -9.0880000 -27.0630000  14.8350000  -8.7840000 -26.0430000  14.5940000
  -9.0540000 -27.1540000  15.9230000  -8.0620000 -28.0500000  14.2440000
  -7.0690000 -27.7700000  14.6010000  -8.2660000 -29.0490000  14.6350000
  -8.0300000 -28.1270000  12.7050000  -7.2190000 -28.7980000  12.4130000
  -8.9590000 -28.5790000  12.3520000  -7.8280000 -26.7640000  12.0110000
  -8.7310000 -26.1610000  12.1310000  -7.0140000 -26.2260000  12.5010000
  -7.4950000 -26.8900000  10.5090000  -7.4730000 -25.8920000  10.0660000
  -6.4880000 -27.3010000  10.4110000  -8.4590000 -27.7800000   9.7000000
  -8.0970000 -27.8290000   8.6710000  -8.4250000 -28.7960000  10.1000000
  -9.8870000 -27.2730000   9.7120000 -10.1010000 -26.4650000  10.4070000
 -10.8370000 -27.7080000   8.8910000 -11.8320000 -27.2710000   8.9320000
 -10.6620000 -28.8510000   7.9130000  -9.8400000 -29.4960000   8.2320000
 -11.5610000 -29.4710000   7.9070000 -10.3960000 -28.3330000   6.4890000
 -11.2950000 -27.8290000   6.1280000  -9.5990000 -27.5880000   6.5160000
 -10.0190000 -29.4570000   5.5030000 -10.7420000 -30.2690000   5.6020000
 -10.1140000 -29.0800000   4.4830000  -8.5980000 -30.0300000   5.6990000
  -8.4800000 -30.3680000   6.7310000  -8.4930000 -30.9210000   5.0760000
  -7.4550000 -29.0450000   5.3650000  -7.4910000 -28.2000000   6.0550000
  -6.5020000 -29.5500000   5.5420000  -7.4640000 -28.5080000   3.9180000
  -8.3600000 -27.9050000   3.7560000  -6.6090000 -27.8420000   3.7900000
  -7.3950000 -29.6200000   2.8510000  -6.5060000 -30.2300000   3.0240000
  -8.2660000 -30.2730000   2.9370000  -7.3470000 -29.0610000   1.4200000
  -7.2730000 -29.8790000   0.7000000  -6.4800000 -28.4090000   1.2940000
  -8.2520000 -28.4910000   1.2020000  46.3340000 -24.4000000   0.7300000
  46.7650000 -24.9040000  -0.1380000  46.3560000 -23.3250000   0.5420000
  45.2940000 -24.7170000   0.8300000  47.1320000 -24.7590000   1.9960000
  48.1720000 -24.4540000   1.8670000  47.1280000 -25.8450000   2.1120000
  46.5730000 -24.1260000   3.2850000  47.1220000 -24.5460000   4.1300000
  45.5280000 -24.4190000   3.4070000  46.6950000 -22.5870000   3.3140000
  46.1990000 -22.1640000   2.4380000  47.7500000 -22.3130000   3.2430000
  46.0810000 -21.9280000   4.5670000  44.9940000 -22.0220000   4.5180000
  46.3030000 -20.8590000   4.5420000  46.5650000 -22.5100000   5.9110000
  46.2590000 -23.5550000   5.9860000  46.0670000 -21.9750000   6.7220000
  48.0900000 -22.4050000   6.1050000  48.3840000 -21.3550000   6.0540000
  48.6040000 -22.9310000   5.2970000  48.5510000 -22.9950000   7.4480000
  48.3060000 -24.0580000   7.4840000  48.0150000 -22.4980000   8.2600000
  50.0680000 -22.8200000   7.6400000  50.3120000 -21.7560000   7.5920000
  50.5910000 -23.3100000   6.8160000  50.6050000 -23.3780000   8.9660000
  51.6820000 -23.2010000   9.0000000  50.4450000 -24.4580000   8.9870000
  49.9470000 -22.7740000  10.2180000  48.9490000 -23.2030000  10.3280000
  49.8310000 -21.6940000  10.1020000  50.7810000 -23.0570000  11.4810000
  51.4840000 -22.2350000  11.6290000  51.3720000 -23.9630000  11.3350000
  49.9390000 -23.2470000  12.7530000  50.6170000 -23.3840000  13.5980000
  49.3560000 -24.1650000  12.6570000  48.9850000 -22.0800000  13.0590000
  48.2520000 -21.9800000  12.2550000  49.5520000 -21.1480000  13.1100000
  48.2580000 -22.3280000  14.3930000  47.7120000 -23.2730000  14.3520000
  48.9930000 -22.4170000  15.1960000  47.2780000 -21.2380000  14.7460000
  46.5880000 -20.6430000  13.9380000  47.2360000 -21.0170000  16.0760000
  46.0540000 -20.3880000  16.6520000  45.6740000 -19.5950000  16.0030000
  46.3460000 -19.9340000  17.6030000  44.9620000 -21.4620000  16.9350000
  44.1260000 -21.0030000  17.4700000  45.5510000 -22.5930000  17.8210000
  45.9170000 -22.1770000  18.7630000  46.3970000 -23.0460000  17.2980000
  44.5600000 -23.6190000  18.1140000  44.9000000 -25.1970000  17.9710000
  45.9210000 -25.4590000  19.1850000  45.4770000 -25.4010000  20.5530000
  44.5160000 -25.9130000  20.6470000  45.3430000 -24.3580000  20.8500000
  46.5090000 -26.1200000  21.4550000  46.5830000 -27.1660000  21.1530000
  46.1440000 -26.0900000  22.4830000  47.9250000 -25.5930000  21.5020000
  48.6730000 -25.9230000  20.2530000  48.6690000 -27.0060000  20.1210000
  49.6960000 -25.5540000  20.3460000  48.1700000 -25.4430000  19.4130000
  47.9540000 -24.1150000  21.7150000  47.4020000 -23.8820000  22.6270000
  47.4910000 -23.6330000  20.8520000  48.9940000 -23.7980000  21.8100000
  48.6400000 -26.2420000  22.6410000  48.1270000 -25.9840000  23.5690000
  49.6660000 -25.8730000  22.6630000  48.6300000 -27.3220000  22.4890000
  43.6600000 -25.9760000  18.2320000  45.6400000 -25.4370000  16.7000000
  44.4840000 -22.0480000  15.6880000  43.5970000 -21.3670000  14.9340000
  43.1460000 -20.2720000  15.2310000  43.2200000 -22.1190000  13.6770000
  43.7740000 -23.0600000  13.6650000  42.1580000 -22.3710000  13.7170000
  43.5200000 -21.3040000  12.3990000  42.7780000 -20.5080000  12.3010000
  44.4920000 -20.8160000  12.4930000  43.5240000 -22.1480000  11.1080000
  42.5860000 -22.7010000  11.0270000  43.5770000 -21.4750000  10.2510000
  44.7230000 -23.1170000  11.0540000  45.6440000 -22.5400000  11.1650000
  44.6750000 -23.8120000  11.8950000  44.8060000 -23.9400000   9.7560000
  43.9150000 -24.5630000   9.6600000  44.8370000 -23.2690000   8.8950000
  46.0690000 -24.8240000   9.7670000  46.9450000 -24.1750000   9.8280000
  46.0690000 -25.4460000  10.6640000  46.2190000 -25.7290000   8.5330000
  46.1810000 -25.1240000   7.6240000  47.2150000 -26.1730000   8.5730000
  45.1940000 -26.8470000   8.5200000  45.2830000 -27.5490000   9.3450000
  44.2650000 -27.0610000   7.5940000  43.6130000 -27.9250000   7.6960000
  43.9690000 -26.1840000   6.3940000  44.4270000 -25.1980000   6.5010000
  44.3820000 -26.6500000   5.4980000  42.4490000 -26.0230000   6.2030000
  41.9850000 -27.0110000   6.1640000  42.0310000 -25.5050000   7.0690000
  42.0690000 -25.2490000   4.9280000  42.4710000 -25.7790000   4.0620000
  40.9810000 -25.2490000   4.8350000  42.5700000 -23.7930000   4.9220000
  42.1950000 -23.2880000   5.8140000  43.6610000 -23.7760000   4.9730000
  42.1130000 -23.0030000   3.6810000  41.0270000 -23.0770000   3.5950000
  42.3560000 -21.9510000   3.8430000  42.7860000 -23.4580000   2.3690000
  43.8600000 -23.2820000   2.4540000  42.6470000 -24.5310000   2.2220000
  42.2740000 -22.7120000   1.1210000  42.3480000 -21.6350000   1.2840000
  42.9230000 -22.9550000   0.2770000  40.8270000 -23.0720000   0.7460000
  40.5160000 -22.5090000  -0.1370000  40.1380000 -22.8370000   1.5600000
  40.7480000 -24.1360000   0.5150000   5.4220000  52.4870000  -3.3620000
   4.7540000  52.9560000  -4.0870000   6.4330000  52.4880000  -3.7750000
   5.4150000  53.0880000  -2.4500000   4.9590000  51.0490000  -3.0750000
   4.8810000  50.5110000  -4.0220000   3.9610000  51.0710000  -2.6330000
   5.9130000  50.2780000  -2.1450000   6.9070000  50.2600000  -2.5960000
   5.5770000  49.2410000  -2.0810000   6.0080000  50.8580000  -0.7200000
   5.0040000  50.9390000  -0.2970000   6.4360000  51.8620000  -0.7590000
   6.8790000  49.9680000   0.1860000   7.8470000  49.8170000  -0.2960000
   6.4160000  48.9840000   0.2790000   7.1350000  50.5470000   1.5910000
   7.7190000  51.4640000   1.4910000   7.7500000  49.8320000   2.1410000
   5.8830000  50.8520000   2.4360000   5.2650000  51.5930000   1.9250000
   6.2200000  51.3000000   3.3730000   5.0340000  49.6050000   2.7490000
   5.6790000  48.8280000   3.1620000   4.6210000  49.2140000   1.8160000
   3.8640000  49.8750000   3.7200000   3.2750000  48.9610000   3.8100000
   3.2070000  50.6280000   3.2790000   4.2650000  50.3410000   5.1390000
   3.3460000  50.4850000   5.7120000   4.7490000  51.3180000   5.0880000
   5.1930000  49.3610000   5.8930000   6.1810000  49.8100000   6.0150000
   5.3300000  48.4560000   5.2980000   4.6410000  48.9360000   7.2680000
   5.2290000  48.0940000   7.6380000   3.6190000  48.5750000   7.1350000
   4.6620000  50.0400000   8.3430000   4.2430000  50.9650000   7.9440000
   5.6940000  50.2400000   8.6380000   3.8380000  49.5990000   9.5660000
   4.1450000  48.5970000   9.8720000   2.7930000  49.5340000   9.2550000
   3.9550000  50.5510000  10.7770000   3.8100000  51.5840000  10.4540000
   4.9540000  50.4810000  11.2120000   2.9260000  50.2440000  11.8430000
   1.9870000  49.4820000  11.6960000   3.1380000  50.9350000  12.9810000
   2.0150000  51.0460000  13.9090000   1.5700000  50.0620000  14.0740000
   1.2640000  51.6970000  13.4540000   2.4370000  51.6120000  15.2910000
   2.8040000  50.7920000  15.9140000   1.1960000  52.2460000  15.9760000
   0.3960000  51.5060000  16.0650000   0.8360000  53.0640000  15.3460000
   1.4850000  52.7970000  17.2920000   1.5800000  51.8770000  18.6200000
   2.8330000  52.5090000  19.3940000   4.1450000  52.4650000  18.8080000
   4.1090000  52.9720000  17.8400000   4.4540000  51.4290000  18.6500000
   5.1360000  53.2140000  19.7250000   4.7670000  54.2240000  19.9100000
   6.0930000  53.2920000  19.2070000   5.4570000  52.6200000  21.0740000
   5.8900000  51.1970000  20.9440000   5.0410000  50.6070000  20.5930000
   6.2180000  50.8410000  21.9210000   6.7070000  51.1580000  20.2230000
   6.5820000  53.3950000  21.6730000   6.2660000  54.4320000  21.7910000
   7.4340000  53.3350000  20.9950000   6.8310000  52.9600000  22.6420000
   4.2940000  52.7000000  22.0070000   3.9990000  53.7450000  22.1040000
   4.5910000  52.2930000  22.9750000   3.4740000  52.1180000  21.5830000
   0.3590000  52.1220000  19.4350000   1.9160000  50.4790000  18.2390000
   3.4600000  52.6350000  15.1160000   4.7500000  52.2510000  15.2150000
   5.1250000  51.1780000  15.6560000   5.7120000  53.2940000  14.7110000
   5.3550000  54.2890000  14.9870000   6.6820000  53.1400000  15.1880000
   5.8520000  53.1870000  13.1840000   6.0220000  52.1450000  12.9050000
   4.9100000  53.4980000  12.7270000   7.0160000  54.0380000  12.6450000
   6.9220000  55.0640000  13.0060000   7.9500000  53.6460000  13.0530000
   7.1030000  54.0250000  11.1060000   8.0370000  54.5010000  10.8020000
   7.1470000  52.9890000  10.7630000   5.9320000  54.7360000  10.3980000
   6.0190000  54.5620000   9.3240000   4.9850000  54.2890000  10.7080000
   5.9090000  56.2580000  10.6610000   5.8130000  56.4480000  11.7310000
   6.8620000  56.6850000  10.3420000   4.7700000  56.9920000   9.9310000
   4.8910000  58.0650000  10.0920000   4.8550000  56.8260000   8.8550000
   3.4130000  56.5680000  10.4540000   3.1510000  56.9770000  11.4270000
   2.5410000  55.7860000   9.8260000   1.5900000  55.5650000  10.3060000
   2.7480000  55.1110000   8.4860000   3.7970000  55.1350000   8.1840000
   2.4700000  54.0590000   8.5710000   1.8770000  55.7930000   7.4160000
   0.8470000  55.8370000   7.7740000   2.2250000  56.8210000   7.2980000
   1.8820000  55.1070000   6.0380000   1.4140000  54.1240000   6.1220000
   1.2630000  55.7010000   5.3620000   3.2830000  54.9480000   5.4200000
   3.7820000  55.9190000   5.4130000   3.8780000  54.2680000   6.0340000
   3.2040000  54.3980000   3.9840000   2.5840000  53.4990000   3.9820000
   2.7040000  55.1310000   3.3470000   4.5730000  54.0390000   3.3750000
   5.0040000  53.2150000   3.9480000   4.4120000  53.6770000   2.3580000
   5.5910000  55.1940000   3.3380000   5.1720000  56.0370000   2.7850000
   5.8010000  55.5340000   4.3550000   6.9140000  54.7710000   2.6790000
   7.6210000  55.6030000   2.6820000   6.7440000  54.4630000   1.6440000
   7.3610000  53.9350000   3.2200000  10.9760000  22.1350000   3.0770000
  11.9400000  21.6680000   2.8680000  11.1520000  23.0750000   3.6040000
  10.4840000  22.3580000   2.1280000  10.1050000  21.1960000   3.9260000
  10.6300000  20.9790000   4.8590000   9.9740000  20.2500000   3.3970000
   8.7220000  21.8010000   4.2280000   8.2220000  22.0350000   3.2850000
   8.8490000  22.7420000   4.7660000   7.8220000  20.8580000   5.0470000
   7.7220000  19.9050000   4.5230000   6.8240000  21.2960000   5.1090000
   8.3550000  20.6000000   6.4670000   8.5260000  21.5540000   6.9700000
   9.3190000  20.0910000   6.4070000   7.3960000  19.7440000   7.3140000
   7.2480000  18.7760000   6.8300000   6.4220000  20.2340000   7.3820000
   7.9650000  19.5310000   8.7260000   8.0780000  20.4990000   9.2180000
   8.9610000  19.0920000   8.6410000   7.0990000  18.6120000   9.6030000
   6.9720000  17.6480000   9.1070000   6.1090000  19.0520000   9.7430000
   7.7800000  18.4060000  10.9650000   7.8560000  19.3710000  11.4710000
   8.7990000  18.0570000  10.7840000   7.0490000  17.4100000  11.8850000
   7.0090000  16.4250000  11.4150000   6.0210000  17.7470000  12.0270000
   7.7330000  17.3050000  13.2640000   7.0890000  16.7430000  13.9430000
   7.8200000  18.3140000  13.6720000   9.1210000  16.6240000  13.2200000
   9.6750000  16.9330000  12.3310000   8.9750000  15.5460000  13.1290000
   9.9900000  16.9090000  14.4610000  10.9120000  16.3300000  14.3740000
   9.4720000  16.5530000  15.3530000  10.3760000  18.3900000  14.6570000
  11.0360000  18.4580000  15.5240000   9.4880000  18.9790000  14.8970000
  11.0880000  19.0100000  13.4370000  10.4040000  19.0900000  12.5900000
  11.9270000  18.3760000  13.1410000  11.6170000  20.3770000  13.7830000
  12.7180000  20.5560000  14.2760000  10.7320000  21.3610000  13.5410000
  10.9630000  22.6250000  14.2330000  11.7380000  23.1970000  13.7170000
  11.3060000  22.4090000  15.2480000   9.6670000  23.4580000  14.3810000
   9.8680000  24.2280000  15.1300000   8.4680000  22.5800000  14.8250000
   8.1240000  22.0100000  13.9570000   7.6470000  23.2080000  15.1800000
   8.8480000  21.6250000  15.8580000   8.9030000  22.0190000  17.4190000
   7.3480000  21.9650000  17.8230000   6.6770000  20.7100000  18.0390000
   7.1150000  19.9440000  17.3940000   5.6260000  20.8250000  17.7630000
   6.7990000  20.3020000  19.5270000   7.8550000  20.1830000  19.7760000
   6.3080000  19.3370000  19.6620000   6.2180000  21.2230000  20.5760000
   7.0270000  22.4690000  20.7230000   8.0600000  22.1890000  20.9380000
   6.6130000  23.0660000  21.5370000   6.9790000  23.0210000  19.7840000
   4.8050000  21.5940000  20.2600000   4.2160000  20.6820000  20.1560000
   4.7980000  22.1660000  19.3300000   4.4160000  22.2060000  21.0750000
   6.2300000  20.5170000  21.8920000   5.6230000  19.6140000  21.8130000
   5.8130000  21.1850000  22.6480000   7.2610000  20.2640000  22.1430000
   9.6420000  20.9500000  18.1440000   9.3650000  23.4260000  17.5520000
   9.3490000  24.0670000  13.0970000   8.9150000  25.3450000  13.0760000
   8.6530000  26.0030000  14.0720000   8.7330000  25.8370000  11.6540000
   9.7150000  26.0060000  11.2060000   8.2520000  25.0420000  11.0820000
   7.8860000  27.1240000  11.5650000   7.0440000  27.0440000  12.2560000
   8.4850000  27.9820000  11.8780000   7.3210000  27.3660000  10.1530000
   8.1360000  27.4520000   9.4310000   6.7250000  26.4930000   9.8790000
   6.4390000  28.6280000  10.0890000   5.8020000  28.6560000  10.9750000
   7.0790000  29.5110000  10.1310000   5.5300000  28.7150000   8.8430000
   4.9840000  29.6600000   8.8810000   6.1370000  28.7330000   7.9360000
   4.5140000  27.5570000   8.7660000   5.0070000  26.6670000   8.3690000
   4.1810000  27.3100000   9.7770000   3.2560000  27.8600000   7.9300000
   2.6160000  26.9750000   7.9230000   2.6910000  28.6500000   8.4310000
   3.5450000  28.3050000   6.5120000   3.5440000  29.3820000   6.3620000
   3.6790000  27.5100000   5.4560000   3.8270000  27.9620000   4.4780000
   3.7940000  26.0000000   5.4750000   4.7310000  25.7380000   4.9790000
   3.8490000  25.6130000   6.4950000   2.6340000  25.3190000   4.7270000
   1.7090000  25.4820000   5.2840000   2.4990000  25.7920000   3.7520000
   2.8450000  23.8030000   4.5240000   2.8700000  23.3150000   5.5010000
   1.9790000  23.4040000   3.9910000   4.1260000  23.4180000   3.7470000
   5.0010000  23.6450000   4.3590000   4.1270000  22.3370000   3.5880000
   4.2680000  24.1230000   2.3820000   3.4350000  23.8380000   1.7350000
   4.2190000  25.2050000   2.5240000   5.5990000  23.7980000   1.6800000
   6.4250000  24.0480000   2.3480000   5.6570000  22.7290000   1.4670000
   5.7440000  24.5960000   0.3700000   4.9700000  24.2890000  -0.3360000
   5.5880000  25.6560000   0.5830000   7.1230000  24.4210000  -0.2820000
   7.1900000  25.0290000  -1.1870000   7.2880000  23.3770000  -0.5540000
   7.9140000  24.7330000   0.4040000 -52.0680000  24.4750000   4.2100000
 -53.1080000  24.6030000   4.5180000 -51.4300000  24.6950000   5.0690000
 -51.9200000  23.4320000   3.9210000 -51.7360000  25.4130000   3.0380000
 -51.8850000  26.4470000   3.3570000 -52.4330000  25.2200000   2.2200000
 -50.2920000  25.2390000   2.5290000 -50.1740000  24.2320000   2.1230000
 -49.6040000  25.3380000   3.3710000 -49.9290000  26.2800000   1.4500000
 -49.9670000  27.2760000   1.8960000 -50.6870000  26.2550000   0.6640000
 -48.5480000  26.0720000   0.7920000 -48.3630000  26.8950000   0.0980000
 -48.5710000  25.1620000   0.1890000 -47.3560000  25.9780000   1.7610000
 -46.4410000  25.8930000   1.1700000 -47.4450000  25.0600000   2.3460000
 -47.2260000  27.1900000   2.7030000 -48.0740000  27.2140000   3.3900000
 -47.2670000  28.1070000   2.1120000 -45.9130000  27.1900000   3.5110000
 -45.9220000  28.0420000   4.1940000 -45.0810000  27.3510000   2.8230000
 -45.6350000  25.8970000   4.3100000 -44.7140000  26.0320000   4.8820000
 -45.4450000  25.0790000   3.6120000 -46.7560000  25.4670000   5.2770000
 -46.4220000  24.5760000   5.8130000 -47.6390000  25.1790000   4.7030000
 -47.1550000  26.5480000   6.2980000 -47.5950000  27.3970000   5.7710000
 -46.2670000  26.9040000   6.8240000 -48.1740000  26.0100000   7.3180000
 -47.7250000  25.1600000   7.8370000 -49.0570000  25.6490000   6.7870000
 -48.5950000  27.0610000   8.3610000 -48.9150000  27.9730000   7.8540000
 -47.7300000  27.3230000   8.9740000 -49.7380000  26.5780000   9.2720000
 -50.6330000  26.4020000   8.6710000 -49.9770000  27.3710000   9.9840000
 -49.3790000  25.2930000  10.0430000 -48.3920000  25.4070000  10.4970000
 -49.3320000  24.4400000   9.3630000 -50.3800000  24.9880000  11.1280000
 -51.5820000  24.9090000  10.9480000 -49.7850000  24.8040000  12.3190000
 -50.6120000  24.4720000  13.4690000 -51.1800000  23.5610000  13.2600000
 -51.3240000  25.2800000  13.6510000 -49.7150000  24.2790000  14.7260000
 -50.3230000  23.8690000  15.5370000 -49.1370000  25.6540000  15.1520000
 -49.9520000  26.3490000  15.3670000 -48.5610000  26.0560000  14.3140000
 -48.2530000  25.5750000  16.3080000 -48.7990000  25.3710000  17.8190000
 -48.0890000  24.0010000  18.2780000 -46.6540000  23.9380000  18.4110000
 -46.2270000  24.9440000  18.4270000 -46.2540000  23.4150000  17.5390000
 -46.2620000  23.1840000  19.7050000 -45.1740000  23.1060000  19.7360000
 -46.6740000  22.1740000  19.6780000 -46.6520000  23.7800000  21.0380000
 -48.1210000  23.6770000  21.2860000 -48.6380000  24.2450000  20.5110000
 -48.3390000  24.0970000  22.2690000 -48.4140000  22.6270000  21.2460000
 -45.9500000  23.0240000  22.1160000 -44.8760000  23.1450000  21.9670000
 -46.2290000  21.9710000  22.0500000 -46.2440000  23.4370000  23.0810000
 -46.2430000  25.2090000  21.1440000 -45.1680000  25.2700000  20.9650000
 -46.4840000  25.5700000  22.1450000 -46.7900000  25.7810000  20.3930000
 -48.2780000  26.4830000  18.6590000 -50.2680000  25.1380000  17.7880000
 -48.6100000  23.3670000  14.4450000 -48.8860000  22.0850000  14.1370000
 -50.0040000  21.5990000  14.1660000 -47.6600000  21.3210000  13.6980000
 -46.8460000  21.5330000  14.3950000 -47.8740000  20.2520000  13.7480000
 -47.2220000  21.6970000  12.2690000 -47.0220000  22.7690000  12.2260000
 -46.2830000  21.1860000  12.0460000 -48.2570000  21.3270000  11.1880000
 -48.4510000  20.2530000  11.2160000 -49.1990000  21.8390000  11.3980000
 -47.7730000  21.7250000   9.7820000 -47.4970000  22.7820000   9.7910000
 -46.8760000  21.1560000   9.5280000 -48.8480000  21.4980000   8.7030000
 -49.0660000  20.4320000   8.6160000 -49.7670000  22.0000000   9.0130000
 -48.4140000  22.0550000   7.3350000 -48.1040000  23.0950000   7.4600000
 -47.5470000  21.5000000   6.9720000 -49.5400000  21.9980000   6.2880000
 -49.7840000  20.9570000   6.0670000 -50.4400000  22.4550000   6.7030000
 -49.1560000  22.7460000   5.0290000 -49.4350000  23.7970000   5.0210000
 -48.5870000  22.2230000   3.9500000 -48.3980000  22.8620000   3.0910000
 -48.0930000  20.7980000   3.8230000 -48.0370000  20.3270000   4.8070000
 -48.8040000  20.2180000   3.2310000 -46.6990000  20.7260000   3.1640000
 -45.9980000  21.3120000   3.7630000 -46.3500000  19.6920000   3.1930000
 -46.6450000  21.2260000   1.7050000 -46.9970000  22.2590000   1.6680000
 -45.6040000  21.2350000   1.3750000 -47.4620000  20.3480000   0.7330000
 -47.0340000  19.3440000   0.7230000 -48.4880000  20.2480000   1.0930000
 -47.4960000  20.8860000  -0.7120000 -46.4810000  20.8940000  -1.1150000
 -48.0720000  20.1910000  -1.3260000 -48.1010000  22.2990000  -0.8630000
 -47.4230000  23.0300000  -0.4180000 -48.1570000  22.5360000  -1.9270000
 -49.5000000  22.4740000  -0.2350000 -49.4380000  22.3370000   0.8470000
 -49.8400000  23.4980000  -0.4040000 -50.5600000  21.5200000  -0.8040000
 -51.5290000  21.7190000  -0.3410000 -50.2930000  20.4790000  -0.6070000
 -50.6610000  21.6590000  -1.8830000   1.1360000 -54.0010000   1.4410000
   1.6770000 -54.3110000   0.5440000   1.7760000 -54.1770000   2.3080000
   0.9350000 -52.9300000   1.3650000  -0.1770000 -54.7900000   1.5670000
   0.0420000 -55.8530000   1.6910000  -0.7370000 -54.6850000   0.6360000
  -1.0570000 -54.3060000   2.7360000  -2.0520000 -54.7410000   2.6150000
  -1.1670000 -53.2210000   2.6790000  -0.5060000 -54.6940000   4.1220000
   0.5400000 -54.3900000   4.2000000  -0.5340000 -55.7810000   4.2230000
  -1.2800000 -54.0560000   5.2940000  -1.1020000 -52.9780000   5.2930000
  -0.8630000 -54.4480000   6.2240000  -2.8010000 -54.3100000   5.2530000
  -2.9940000 -55.3770000   5.1250000  -3.2240000 -53.7980000   4.3860000
  -3.5370000 -53.8060000   6.5110000  -4.6100000 -53.8090000   6.3100000
  -3.2470000 -52.7740000   6.7150000  -3.2650000 -54.6830000   7.7460000
  -2.1900000 -54.7290000   7.9360000  -3.6030000 -55.7000000   7.5370000
  -3.9660000 -54.1730000   9.0170000  -5.0460000 -54.1390000   8.8570000
  -3.6290000 -53.1570000   9.2320000  -3.6480000 -55.0830000  10.2160000
  -2.5650000 -55.2070000  10.2790000  -4.0820000 -56.0700000  10.0420000
  -4.1780000 -54.5310000  11.5520000  -5.2540000 -54.3670000  11.4700000
  -3.7210000 -53.5580000  11.7480000  -3.9090000 -55.4780000  12.7400000
  -4.4830000 -56.3950000  12.5930000  -4.2940000 -55.0150000  13.6520000
  -2.4260000 -55.8600000  12.9450000  -2.1000000 -56.4850000  12.1110000
  -2.3440000 -56.4760000  13.8430000  -1.4610000 -54.6640000  13.0710000
  -1.5050000 -54.0650000  12.1590000  -0.4400000 -55.0420000  13.1550000
  -1.7680000 -53.7730000  14.2920000  -1.6190000 -54.3430000  15.2120000
  -2.8130000 -53.4560000  14.2710000  -0.9190000 -52.5260000  14.3510000
  -0.0950000 -52.2000000  13.5100000  -1.2120000 -51.8020000  15.4450000
  -0.5860000 -50.4940000  15.5950000  -1.0310000 -49.8120000  14.8670000
   0.4850000 -50.5710000  15.3940000  -0.7840000 -49.9200000  17.0230000
  -0.6620000 -48.8370000  16.9340000   0.2660000 -50.4300000  18.0410000
  -0.0790000 -50.2350000  19.0600000   1.1960000 -49.8770000  17.8860000
   0.5510000 -51.8440000  17.8670000   1.6050000 -52.6260000  18.8030000
   0.6660000 -53.4470000  19.8160000  -0.1280000 -52.8010000  20.8290000
   0.3560000 -51.8800000  21.1630000  -0.1990000 -53.4760000  21.6860000
  -1.5500000 -52.5070000  20.2880000  -1.5050000 -51.7100000  19.5440000
  -2.1620000 -52.1580000  21.1210000  -2.3230000 -53.6340000  19.6380000
  -2.0920000 -54.9460000  20.3150000  -1.0340000 -55.1950000  20.2170000
  -2.7050000 -55.7050000  19.8270000  -2.3660000 -54.8510000  21.3670000
  -3.7830000 -53.3320000  19.7170000  -3.9640000 -52.3540000  19.2690000
  -4.0810000 -53.3280000  20.7660000  -4.3280000 -54.1070000  19.1760000
  -1.9470000 -53.7540000  18.1960000  -2.1040000 -52.7940000  17.7030000
  -2.5550000 -54.5320000  17.7330000  -0.8880000 -54.0150000  18.1440000
   2.3170000 -53.6220000  17.9620000   2.4100000 -51.6480000  19.5840000
  -2.1340000 -50.2210000  17.4900000  -2.8460000 -49.2600000  18.1100000
  -2.3520000 -48.2280000  18.5310000  -4.3150000 -49.6040000  18.2830000
  -4.4550000 -49.9570000  19.3070000  -4.9050000 -48.6920000  18.1700000
  -4.8570000 -50.6840000  17.3130000  -4.2560000 -51.5910000  17.4080000
  -5.8730000 -50.9480000  17.6160000  -4.8840000 -50.2630000  15.8310000
  -5.6120000 -49.4610000  15.6900000  -3.9010000 -49.8730000  15.5600000
  -5.2410000 -51.4490000  14.9110000  -4.5200000 -52.2520000  15.0800000
  -6.2220000 -51.8400000  15.1900000  -5.2530000 -51.1060000  13.4070000
  -5.4080000 -52.0260000  12.8390000  -6.0970000 -50.4460000  13.1920000
  -3.9540000 -50.4250000  12.9380000  -3.8970000 -49.4310000  13.3870000
  -3.0950000 -50.9960000  13.2970000  -3.8450000 -50.2780000  11.4110000
  -3.7250000 -51.2630000  10.9550000  -4.7730000 -49.8460000  11.0300000
  -2.6870000 -49.3570000  11.0860000  -2.6390000 -48.4620000  11.7010000
  -1.7240000 -49.5700000  10.1980000  -0.9310000 -48.8310000  10.1100000
  -1.6390000 -50.7230000   9.2170000  -0.9760000 -51.4930000   9.6170000
  -2.6220000 -51.1760000   9.0660000  -1.0900000 -50.2710000   7.8480000
  -1.0910000 -51.1270000   7.1710000  -1.7700000 -49.5250000   7.4310000
   0.3390000 -49.6890000   7.9230000   0.3370000 -48.7960000   8.5510000
   0.9930000 -50.4180000   8.4070000   0.9470000 -49.3100000   6.5590000
   1.9280000 -48.8640000   6.7380000   1.1030000 -50.2130000   5.9650000
   0.0820000 -48.3170000   5.7600000  -0.8340000 -48.8260000   5.4520000
  -0.2010000 -47.4800000   6.4020000   0.7830000 -47.7730000   4.5030000
   1.6630000 -47.1990000   4.7990000   1.1230000 -48.6090000   3.8880000
  -0.1480000 -46.8720000   3.6710000  -1.0430000 -47.4360000   3.3990000
  -0.4680000 -46.0210000   4.2750000   0.5300000 -46.3600000   2.3900000
  -0.1680000 -45.7560000   1.8070000   0.8600000 -47.1980000   1.7710000
   1.3990000 -45.7460000   2.6360000 -40.3220000 -35.0310000   2.9050000
 -41.3230000 -34.8330000   2.5150000 -39.8280000 -34.0700000   3.0660000
 -40.4230000 -35.5370000   3.8670000 -39.5320000 -35.9060000   1.9130000
 -39.4380000 -35.3870000   0.9570000 -40.0970000 -36.8220000   1.7320000
 -38.1360000 -36.2960000   2.4290000 -37.7230000 -37.0850000   1.7980000
 -38.2440000 -36.7100000   3.4340000 -37.1630000 -35.1020000   2.4360000
 -37.6610000 -34.2210000   2.8450000 -36.8970000 -34.8580000   1.4050000
 -35.8750000 -35.3510000   3.2420000 -35.2490000 -34.4600000   3.1570000
 -35.3200000 -36.1740000   2.7870000 -36.1040000 -35.6550000   4.7380000
 -35.1360000 -35.6460000   5.2440000 -36.5150000 -36.6600000   4.8530000
 -37.0470000 -34.6430000   5.4190000 -38.0570000 -34.7550000   5.0190000
 -36.7130000 -33.6320000   5.1760000 -37.1070000 -34.8010000   6.9480000
 -36.0960000 -34.7280000   7.3540000 -37.4950000 -35.7890000   7.2050000
 -37.9970000 -33.7100000   7.5750000 -39.0360000 -33.8940000   7.2930000
 -37.7170000 -32.7440000   7.1500000 -37.8720000 -33.6060000   9.1080000
 -37.6750000 -32.5640000   9.3670000 -37.0020000 -34.1760000   9.4400000
 -39.1160000 -34.0610000   9.8980000 -39.9460000 -33.3890000   9.6710000
 -38.8990000 -33.9560000  10.9630000 -39.5430000 -35.5140000   9.6110000
 -38.6610000 -36.1580000   9.6310000 -39.9670000 -35.5820000   8.6080000
 -40.5620000 -36.0530000  10.6340000 -40.0950000 -36.0640000  11.6210000
 -40.7920000 -37.0890000  10.3770000 -41.8750000 -35.2450000  10.6980000
 -42.2640000 -35.1350000   9.6840000 -41.6790000 -34.2390000  11.0750000
 -42.9630000 -35.9170000  11.5650000 -43.0610000 -36.9690000  11.2870000
 -43.9230000 -35.4380000  11.3610000 -42.6950000 -35.8240000  13.0510000
 -43.3130000 -35.0790000  13.7940000 -41.7450000 -36.6820000  13.4740000
 -41.4050000 -36.6680000  14.8910000 -42.2750000 -36.9920000  15.4680000
 -41.1380000 -35.6530000  15.1940000 -40.2180000 -37.6170000  15.1720000
 -40.4640000 -38.5890000  14.7350000 -39.9830000 -37.7750000  16.6910000
 -39.1340000 -38.4430000  16.8600000 -40.8690000 -38.2180000  17.1540000
 -39.7110000 -36.4880000  17.3110000 -39.3680000 -36.3850000  18.8800000
 -37.9570000 -37.1410000  18.9770000 -36.7470000 -36.4990000  18.5410000
 -36.5640000 -35.6060000  19.1450000 -36.8630000 -36.1970000  17.4970000
 -35.5720000 -37.4990000  18.6650000 -34.6660000 -37.0090000  18.3040000
 -35.7700000 -38.3650000  18.0320000 -35.2330000 -38.0460000  20.0350000
 -36.2420000 -39.0520000  20.4870000 -37.2090000 -38.5540000  20.5690000
 -35.9360000 -39.4460000  21.4570000 -36.2950000 -39.8510000  19.7470000
 -33.9120000 -38.7360000  19.9620000 -33.1470000 -38.0080000  19.6900000
 -33.9750000 -39.5250000  19.2110000 -33.6870000 -39.1620000  20.9420000
 -35.1370000 -36.9600000  21.0560000 -34.4020000 -36.2260000  20.7230000
 -34.8300000 -37.4010000  22.0060000 -36.1200000 -36.4980000  21.1600000
 -39.1670000 -34.9510000  19.2200000 -40.3750000 -37.1710000  19.6450000
 -39.0050000 -37.0690000  14.5750000 -38.0800000 -37.9170000  14.0890000
 -38.2230000 -39.1270000  14.0290000 -36.8140000 -37.2230000  13.6400000
 -36.3150000 -36.7980000  14.5130000 -36.1500000 -37.9760000  13.2110000
 -37.0890000 -36.1050000  12.6120000 -37.7840000 -36.4690000  11.8530000
 -37.5860000 -35.2750000  13.1180000 -35.8090000 -35.5720000  11.9310000
 -36.0700000 -34.6990000  11.3300000 -35.1190000 -35.2230000  12.7020000
 -35.0720000 -36.5920000  11.0340000 -34.1960000 -36.1030000  10.6040000
 -34.7040000 -37.4160000  11.6490000 -35.9210000 -37.1580000   9.8770000
 -36.8560000 -37.5650000  10.2690000 -36.1730000 -36.3530000   9.1840000
 -35.1970000 -38.2850000   9.1200000 -34.2580000 -37.9130000   8.7060000
 -34.9510000 -39.0750000   9.8320000 -36.0590000 -38.8800000   7.9890000
 -37.0600000 -39.0670000   8.3850000 -36.1550000 -38.1550000   7.1780000
 -35.4750000 -40.1960000   7.5180000 -35.1130000 -40.8350000   8.3190000
 -35.3740000 -40.6350000   6.2680000 -34.9260000 -41.6110000   6.1010000
 -35.7970000 -39.9210000   5.0010000 -36.7180000 -40.3690000   4.6240000
 -35.9850000 -38.8600000   5.1750000 -34.7010000 -40.0870000   3.9330000
 -33.7800000 -39.6430000   4.3150000 -34.5090000 -41.1510000   3.7810000
 -35.0420000 -39.4420000   2.5770000 -35.9460000 -39.8990000   2.1690000
 -35.2420000 -38.3780000   2.7200000 -33.8800000 -39.6190000   1.5800000
 -32.9720000 -39.2020000   2.0200000 -33.7000000 -40.6850000   1.4270000
 -34.1250000 -38.9410000   0.2200000 -35.0620000 -39.3030000  -0.2080000
 -34.2250000 -37.8650000   0.3750000 -32.9720000 -39.2290000  -0.7650000
 -32.0210000 -38.9680000  -0.2960000 -32.9430000 -40.3020000  -0.9670000
 -33.0860000 -38.4760000  -2.1040000 -32.3060000 -38.8410000  -2.7760000
 -34.0460000 -38.7000000  -2.5740000 -32.9210000 -36.9530000  -1.9590000
 -32.8730000 -36.4860000  -2.9450000 -31.9990000 -36.7170000  -1.4230000
 -33.7600000 -36.5170000  -1.4110000 -30.4800000  -9.7970000  -3.1690000
 -31.5070000  -9.4560000  -3.3180000 -30.0740000 -10.0940000  -4.1380000
 -29.8910000  -8.9620000  -2.7840000 -30.4520000 -10.9760000  -2.1860000
 -31.0500000 -11.7930000  -2.5960000 -30.9220000 -10.6600000  -1.2520000
 -29.0210000 -11.4780000  -1.9050000 -28.4470000 -10.6900000  -1.4140000
 -28.5290000 -11.6900000  -2.8570000 -28.9750000 -12.7660000  -1.0590000
 -27.9340000 -13.0620000  -0.9200000 -29.4590000 -13.5660000  -1.6240000
 -29.6600000 -12.6610000   0.3170000 -29.7400000 -13.6650000   0.7400000
 -30.6830000 -12.2990000   0.1920000 -28.9180000 -11.7660000   1.3300000
 -28.6930000 -10.7970000   0.8800000 -27.9690000 -12.2330000   1.6040000
 -29.7850000 -11.5450000   2.5790000 -30.3600000 -12.4540000   2.7680000
 -30.5050000 -10.7550000   2.3560000 -29.0310000 -11.1800000   3.8700000
 -28.3490000 -10.3450000   3.6930000 -28.4390000 -12.0380000   4.1950000
 -30.0510000 -10.7970000   4.9600000 -30.9040000 -11.4770000   4.9010000
 -30.4300000  -9.7950000   4.7470000 -29.5160000 -10.8360000   6.4010000
 -28.6600000 -10.1660000   6.5020000 -29.1810000 -11.8480000   6.6360000
 -30.6340000 -10.4230000   7.3790000 -31.5090000 -11.0510000   7.2030000
 -30.9300000  -9.3950000   7.1620000 -30.2430000 -10.5330000   8.8630000
 -29.3670000  -9.9100000   9.0600000 -29.9720000 -11.5650000   9.0940000
 -31.4120000 -10.0900000   9.7650000 -32.2840000 -10.7130000   9.5560000
 -31.6910000  -9.0640000   9.5180000 -31.0820000 -10.1690000  11.2650000
 -30.2030000  -9.5550000  11.4720000 -30.8390000 -11.2000000  11.5290000
 -32.2620000  -9.6790000  12.1280000 -33.1560000 -10.2630000  11.8990000
 -32.4830000  -8.6340000  11.9010000 -31.9490000  -9.8020000  13.5970000
 -31.2100000  -9.0350000  14.1840000 -32.5900000 -10.8460000  14.1620000
 -32.2650000 -11.2420000  15.5290000 -33.1760000 -11.6330000  15.9890000
 -31.9180000 -10.3900000  16.1190000 -31.2140000 -12.3760000  15.4910000
 -31.5790000 -13.0940000  14.7520000 -31.0590000 -13.1150000  16.8500000
 -30.7320000 -14.1340000  16.6300000 -32.0220000 -13.1870000  17.3620000
 -30.0600000 -12.5280000  17.7380000 -30.3610000 -11.2500000  18.6880000
 -30.0510000 -10.0040000  17.7330000 -28.7010000  -9.6570000  17.3960000
 -28.1950000 -10.5470000  17.0130000 -28.1730000  -9.3060000  18.2870000
 -28.7340000  -8.5720000  16.2960000 -29.3150000  -8.9520000  15.4550000
 -27.7150000  -8.3870000  15.9540000 -29.3180000  -7.2190000  16.6350000
 -30.7810000  -7.2900000  16.9240000 -31.2740000  -7.7480000  16.0650000
 -31.1610000  -6.2820000  17.0960000 -30.9260000  -7.9110000  17.8090000
 -28.6220000  -6.6070000  17.8080000 -27.5530000  -6.5520000  17.5950000
 -28.8050000  -7.2340000  18.6810000 -29.0310000  -5.6090000  17.9740000
 -29.1400000  -6.3230000  15.4560000 -28.0730000  -6.2020000  15.2620000
 -29.5960000  -5.3560000  15.6750000 -29.6340000  -6.7890000  14.6020000
 -31.8120000 -11.2060000  19.0210000 -29.3730000 -11.2560000  19.8040000
 -29.9400000 -11.8230000  15.0620000 -29.1170000 -12.5790000  14.3160000
 -29.3840000 -13.6940000  13.9000000 -27.8050000 -11.8860000  14.0490000
 -27.3920000 -11.5480000  15.0020000 -27.1070000 -12.6050000  13.6150000
 -27.9660000 -10.6830000  13.1000000 -28.3530000 -11.0260000  12.1390000
 -28.6910000  -9.9840000  13.5220000 -26.6210000  -9.9650000  12.8850000
 -26.2180000  -9.6540000  13.8510000 -25.9100000 -10.6720000  12.4520000
 -26.7000000  -8.7390000  11.9570000 -25.6860000  -8.3650000  11.8040000
 -27.0800000  -9.0460000  10.9800000 -27.5720000  -7.5940000  12.5090000
 -28.6200000  -7.8990000  12.5070000 -27.2840000  -7.3860000  13.5410000
 -27.3960000  -6.3130000  11.6690000 -26.3540000  -5.9930000  11.7390000
 -27.5770000  -6.5500000  10.6190000 -28.2940000  -5.1290000  12.0880000
 -28.0450000  -4.8380000  13.1110000 -28.0590000  -4.2660000  11.4610000
 -29.7800000  -5.4300000  12.0030000 -30.2910000  -5.5120000  12.9580000
 -30.4850000  -5.5390000  10.8800000 -31.5540000  -5.7290000  10.9360000
 -29.9150000  -5.4750000   9.4790000 -30.5520000  -4.8530000   8.8470000
 -28.9230000  -5.0170000   9.4830000 -29.8250000  -6.8940000   8.8880000
 -29.4140000  -7.5660000   9.6440000 -30.8300000  -7.2470000   8.6500000
 -28.9390000  -6.9840000   7.6350000 -27.9560000  -6.5750000   7.8780000
 -28.7930000  -8.0360000   7.3810000 -29.5340000  -6.2570000   6.4150000
 -30.5100000  -6.6900000   6.1880000 -29.6950000  -5.2050000   6.6590000
 -28.6460000  -6.3510000   5.1610000 -28.4670000  -7.4030000   4.9280000
 -29.1940000  -5.9190000   4.3220000 -27.2960000  -5.6210000   5.3140000
 -27.4760000  -4.5570000   5.4790000 -26.7680000  -6.0010000   6.1910000
 -26.3710000  -5.8010000   4.0990000 -25.4140000  -5.3200000   4.3120000
 -26.1730000  -6.8650000   3.9580000 -26.9410000  -5.2160000   2.7980000
 -26.1980000  -5.2980000   2.0020000 -27.1890000  -4.1610000   2.9310000
 -27.8390000  -5.7540000   2.4870000  37.8530000 -30.8770000   1.9020000
  37.5130000 -31.5600000   1.1210000  38.9440000 -30.8390000   1.8760000
  37.4560000 -29.8840000   1.6790000  37.3600000 -31.3670000   3.2700000
  37.6560000 -32.4120000   3.3920000  36.2690000 -31.3370000   3.2810000
  37.9070000 -30.5590000   4.4630000  38.9970000 -30.6300000   4.4750000
  37.5490000 -31.0340000   5.3790000  37.4850000 -29.0730000   4.4560000
  36.3950000 -29.0100000   4.4410000  37.8420000 -28.5960000   3.5400000
  38.0180000 -28.2640000   5.6580000  37.6470000 -27.2410000   5.5730000
  39.1080000 -28.2200000   5.6060000  37.5910000 -28.8490000   7.0200000
  38.0860000 -29.8110000   7.1710000  36.5150000 -29.0360000   7.0070000
  37.8950000 -27.9480000   8.2300000  37.5930000 -28.4820000   9.1340000
  37.2740000 -27.0510000   8.1770000  39.3730000 -27.5300000   8.3580000
  39.6030000 -26.7850000   7.5930000  40.0230000 -28.3910000   8.1860000
  39.6590000 -26.9500000   9.7550000  39.5960000 -27.7570000  10.4880000
  38.8820000 -26.2260000  10.0070000  41.0330000 -26.2620000   9.8600000
  41.1350000 -25.5550000   9.0340000  41.8320000 -27.0000000   9.7640000
  41.1940000 -25.4740000  11.1740000  40.3780000 -24.7530000  11.2480000
  42.1230000 -24.9010000  11.1300000  41.2210000 -26.3470000  12.4410000
  42.1600000 -26.9050000  12.4780000  40.4060000 -27.0730000  12.4190000
  41.0690000 -25.4860000  13.7070000  40.0920000 -25.0000000  13.6760000
  41.8250000 -24.6980000  13.7090000  41.2000000 -26.3090000  15.0000000
  42.2540000 -26.5480000  15.1580000  40.6730000 -27.2590000  14.8880000
  40.6540000 -25.5640000  16.2360000  41.0820000 -24.5610000  16.2920000
  40.9510000 -26.1020000  17.1390000  39.1450000 -25.4790000  16.2120000
  38.5190000 -24.4370000  16.1080000  38.5790000 -26.6970000  16.3040000
  37.1250000 -26.8140000  16.2990000  36.7400000 -26.4200000  15.3550000
  36.7050000 -26.2270000  17.1190000  36.6940000 -28.3050000  16.4490000
  35.6700000 -28.4030000  16.0810000  36.6790000 -28.8160000  17.9160000
  36.8030000 -29.9020000  17.9040000  35.7110000 -28.5910000  18.3710000
  37.7200000 -28.2120000  18.7350000  38.6050000 -29.0800000  19.7750000
  39.6050000 -29.9120000  18.8170000  40.5100000 -29.2380000  17.9140000
  39.9840000 -28.4050000  17.4410000  40.8050000 -29.9370000  17.1270000
  41.7630000 -28.7140000  18.6550000  41.4480000 -28.1100000  19.5070000
  42.3270000 -28.0660000  17.9820000  42.7580000 -29.7060000  19.1930000
  42.1450000 -30.6380000  20.1840000  41.6890000 -30.0410000  20.9750000
  42.9230000 -31.2880000  20.5870000  41.3810000 -31.2250000  19.6730000
  43.3690000 -30.4990000  18.0850000  43.8210000 -29.8070000  17.3720000
  42.5870000 -31.0890000  17.6040000  44.1300000 -31.1570000  18.5070000
  43.8450000 -28.9540000  19.8830000  44.2850000 -28.2550000  19.1700000
  44.5940000 -29.6630000  20.2390000  43.4060000 -28.4080000  20.7200000
  39.3990000 -28.1430000  20.6190000  37.7130000 -30.0560000  20.4570000
  37.5560000 -29.1780000  15.6540000  37.4330000 -29.1600000  14.3140000
  36.5270000 -28.5910000  13.7270000  38.5400000 -29.9380000  13.6340000
  39.4750000 -29.3890000  13.7640000  38.6550000 -30.8980000  14.1420000
  38.2780000 -30.1790000  12.1300000  37.3580000 -30.7570000  12.0150000
  38.1250000 -29.2200000  11.6310000  39.4360000 -30.9230000  11.4370000
  40.3470000 -30.3280000  11.5270000  39.6110000 -31.8740000  11.9440000
  39.1320000 -31.1870000   9.9490000  38.2000000 -31.7520000   9.8740000
  38.9660000 -30.2340000   9.4430000  40.2300000 -31.9620000   9.1950000
  40.4200000 -32.9100000   9.7020000  39.8590000 -32.1980000   8.1960000
  41.5480000 -31.1750000   9.0630000  41.3410000 -30.1970000   8.6240000
  41.9760000 -31.0060000  10.0530000  42.5790000 -31.9040000   8.1830000
  42.7880000 -32.8810000   8.6240000  42.1540000 -32.0740000   7.1920000
  43.8640000 -31.1050000   8.1070000  44.3120000 -30.8740000   9.0700000
  44.4480000 -30.6580000   7.0000000  45.3610000 -30.0760000   7.0860000
  43.9790000 -30.8980000   5.5800000  44.8380000 -30.8430000   4.9080000
  43.5560000 -31.8990000   5.4720000  42.9370000 -29.8450000   5.1650000
  42.0260000 -29.9950000   5.7460000  43.3210000 -28.8530000   5.4110000
  42.6010000 -29.8800000   3.6630000  43.4980000 -29.6340000   3.0910000
  42.2850000 -30.8840000   3.3720000  41.4850000 -28.8730000   3.3290000
  40.5450000 -29.2340000   3.7500000  41.7160000 -27.9230000   3.8150000
  41.3140000 -28.6290000   1.8180000  42.1990000 -28.1110000   1.4430000
  41.2550000 -29.5880000   1.2990000  40.0570000 -27.8050000   1.4730000
  40.0710000 -27.5730000   0.4060000  39.1720000 -28.4190000   1.6540000
  39.9180000 -26.4980000   2.2780000  39.8550000 -26.7250000   3.3450000
  40.8020000 -25.8770000   2.1210000  38.6610000 -25.7100000   1.8840000
  38.5780000 -24.8000000   2.4830000  37.7700000 -26.3180000   2.0510000
  38.7010000 -25.4290000   0.8300000  48.8440000 -21.1620000   0.3510000
  48.6690000 -21.2210000  -0.7250000  47.9490000 -21.5190000   0.8650000
  49.6780000 -21.8200000   0.6030000  49.1560000 -19.7130000   0.7580000
  48.3120000 -19.0750000   0.4870000  50.0200000 -19.3600000   0.1920000
  49.4460000 -19.5730000   2.2630000  50.2820000 -20.2240000   2.5290000
  48.5740000 -19.9080000   2.8270000  49.7930000 -18.1200000   2.6440000
  48.9320000 -17.4790000   2.4450000  50.6080000 -17.7730000   2.0060000
  50.2240000 -17.9550000   4.1150000  50.5290000 -16.9190000   4.2760000
  51.1010000 -18.5810000   4.2960000  49.1110000 -18.3110000   5.1190000
  48.8220000 -19.3560000   4.9880000  48.2280000 -17.7060000   4.9030000
  49.5110000 -18.0940000   6.5920000  48.6610000 -18.3710000   7.2190000
  49.7080000 -17.0330000   6.7640000  50.7400000 -18.9210000   7.0170000
  51.6430000 -18.4930000   6.5770000  50.6370000 -19.9300000   6.6100000
  50.9140000 -19.0170000   8.5470000  51.7080000 -19.7340000   8.7660000
  49.9940000 -19.4090000   8.9870000  51.2710000 -17.6660000   9.1960000
  50.4840000 -16.9360000   8.9900000  52.1860000 -17.2890000   8.7360000
  51.4920000 -17.7440000  10.7190000  51.9080000 -16.7890000  11.0450000
  52.2330000 -18.5140000  10.9450000  50.2040000 -18.0070000  11.5220000
  49.8120000 -18.9970000  11.2810000  49.4500000 -17.2730000  11.2300000
  50.4430000 -17.9050000  13.0410000  50.9070000 -16.9430000  13.2690000
  51.1420000 -18.6870000  13.3460000  49.1290000 -18.0270000  13.8380000
  48.6430000 -18.9750000  13.5970000  48.4550000 -17.2350000  13.5050000
  49.3000000 -17.9000000  15.3690000  48.3160000 -17.7720000  15.8250000
  49.8760000 -17.0020000  15.6030000  49.9570000 -19.0920000  16.0290000
  50.3260000 -20.0910000  15.4370000  50.0560000 -18.9210000  17.3650000
  50.6230000 -20.0120000  18.1610000  50.2970000 -20.9740000  17.7580000
  50.2190000 -19.9340000  19.1730000  52.1790000 -19.9760000  18.2480000
  52.5110000 -21.0170000  18.2820000  52.6970000 -19.2710000  19.5240000
  53.7870000 -19.1930000  19.4990000  52.4150000 -19.8720000  20.3920000
  52.1250000 -17.9470000  19.6520000  51.5690000 -17.3820000  21.0530000
  51.2760000 -15.8390000  20.7040000  50.2090000 -15.4600000  19.8060000
  49.9690000 -14.4080000  19.9760000  49.3150000 -16.0480000  20.0310000
  50.6240000 -15.6720000  18.3260000  49.7710000 -15.4220000  17.6930000
  50.8590000 -16.7260000  18.1680000  51.7940000 -14.8870000  17.7750000
  53.0880000 -15.2840000  18.4040000  53.0400000 -15.0440000  19.4670000
  53.9020000 -14.7360000  17.9260000  53.2180000 -16.3600000  18.2760000
  51.9070000 -15.1650000  16.3120000  50.9860000 -14.8470000  15.8210000
  52.0670000 -16.2350000  16.1750000  52.7550000 -14.6040000  15.9160000
  51.5950000 -13.4180000  17.9610000  50.6510000 -13.1300000  17.4950000
  52.4280000 -12.8940000  17.4890000  51.5740000 -13.2050000  19.0300000
  50.2860000 -18.0630000  21.3800000  52.6740000 -17.4200000  22.0510000
  52.7330000 -19.3200000  17.0690000  53.8430000 -19.8160000  16.4930000
  54.5190000 -20.7200000  16.9570000  54.1530000 -19.1230000  15.1900000
  54.7510000 -19.7910000  14.5680000  53.2130000 -18.9310000  14.6680000
  54.9190000 -17.8050000  15.4190000  54.3220000 -17.1390000  16.0470000
  55.8400000 -18.0210000  15.9650000  55.2820000 -17.0780000  14.1100000
  55.8960000 -16.2080000  14.3550000  55.8940000 -17.7390000  13.4920000
  54.0500000 -16.6090000  13.3100000  53.4730000 -17.4750000  12.9780000
  53.4040000 -16.0240000  13.9690000  54.4040000 -15.7440000  12.0850000
  53.4810000 -15.3440000  11.6600000  55.0010000 -14.8890000  12.4070000
  55.1670000 -16.5150000  10.9900000  56.1340000 -16.8410000  11.3800000
  54.6020000 -17.4080000  10.7150000  55.3910000 -15.6620000   9.7300000
  54.4270000 -15.4080000   9.2840000  55.8690000 -14.7260000  10.0280000
  56.2870000 -16.3840000   8.7460000  57.2460000 -16.7020000   9.1480000
  56.0000000 -16.6410000   7.4750000  56.7270000 -17.1730000   6.8660000
  54.7080000 -16.2890000   6.7680000  53.8610000 -16.6970000   7.3240000
  54.5880000 -15.2040000   6.7240000  54.6770000 -16.8570000   5.3340000
  54.8260000 -17.9380000   5.3730000  53.6880000 -16.6820000   4.9060000
  55.7420000 -16.2220000   4.4160000  55.5590000 -15.1480000   4.3530000
  56.7320000 -16.3570000   4.8550000  55.7470000 -16.8180000   2.9950000
  55.9470000 -17.8900000   3.0570000  54.7640000 -16.6870000   2.5390000
  56.8170000 -16.1350000   2.1220000  56.6210000 -15.0610000   2.1030000
  57.7970000 -16.2720000   2.5850000  56.8820000 -16.6390000   0.6690000
  55.9330000 -16.4340000   0.1700000  57.6490000 -16.0640000   0.1450000
  57.2130000 -18.1380000   0.5390000  58.0680000 -18.3860000   1.1720000
  56.3690000 -18.7370000   0.8880000  57.5380000 -18.5100000  -0.9160000
  57.7720000 -19.5740000  -0.9940000  58.4000000 -17.9420000  -1.2720000
  56.6890000 -18.2940000  -1.5690000  45.1690000  20.3400000   3.0330000
  44.1070000  20.2780000   3.2780000  45.7190000  20.5050000   3.9620000
  45.4840000  19.3840000   2.6090000  45.3980000  21.4800000   2.0260000
  44.9700000  22.4040000   2.4200000  44.8460000  21.2360000   1.1160000
  46.8760000  21.7100000   1.6530000  46.9130000  22.0920000   0.6310000
  47.3960000  20.7500000   1.6480000  47.6460000  22.7060000   2.5480000
  47.2130000  23.7020000   2.4300000  48.6740000  22.7630000   2.1850000
  47.6680000  22.3450000   4.0450000  47.9430000  21.2950000   4.1610000
  46.6670000  22.4770000   4.4620000  48.6620000  23.2090000   4.8430000
  48.4470000  24.2650000   4.6690000  49.6740000  23.0140000   4.4840000
  48.5860000  22.9220000   6.3550000  48.7010000  21.8500000   6.5270000
  47.5950000  23.2070000   6.7140000  49.6730000  23.6730000   7.1500000
  49.6540000  24.7330000   6.8910000  50.6500000  23.2870000   6.8530000
  49.5230000  23.5210000   8.6780000  50.4490000  23.8450000   9.1560000
  49.3800000  22.4670000   8.9280000  48.3590000  24.3560000   9.2450000
  47.4300000  24.0770000   8.7430000  48.5410000  25.4110000   9.0280000
  48.1690000  24.1780000  10.7630000  49.0930000  24.4370000  11.2850000
  47.9540000  23.1290000  10.9750000  47.0240000  25.0740000  11.2730000
  46.1540000  24.9420000  10.6270000  47.3380000  26.1150000  11.1780000
  46.5930000  24.8220000  12.7310000  45.8950000  25.6100000  13.0200000
  47.4590000  24.8960000  13.3920000  45.9040000  23.4580000  12.9190000
  46.6410000  22.6610000  12.7970000  45.1460000  23.3340000  12.1430000
  45.2380000  23.3140000  14.3010000  44.5250000  24.1240000  14.4640000
  46.0020000  23.3870000  15.0780000  44.5090000  21.9950000  14.4490000
  43.9410000  21.4230000  13.5330000  44.5110000  21.5710000  15.7290000
  44.0830000  20.2120000  16.0330000  43.1950000  19.9480000  15.4520000
  43.8100000  20.1900000  17.0910000  45.1970000  19.1440000  15.8300000
  44.8110000  18.2140000  16.2540000  46.5200000  19.4970000  16.5650000
  47.1660000  18.6160000  16.5810000  46.2870000  19.7680000  17.5980000
  47.2440000  20.5930000  15.9380000  48.5170000  21.2740000  16.6630000
  47.8390000  22.2190000  17.7710000  48.6680000  23.0680000  18.5830000
  49.0870000  23.8590000  17.9560000  49.4930000  22.4850000  19.0000000
  47.8240000  23.6920000  19.7190000  47.0290000  24.3000000  19.2850000
  48.4710000  24.3480000  20.3020000  47.1610000  22.7690000  20.7150000
  46.7180000  23.5760000  21.8910000  47.5960000  24.0330000  22.3510000
  46.2220000  22.9140000  22.6030000  46.0270000  24.3460000  21.5460000
  45.9520000  22.1170000  20.1260000  46.2700000  21.5180000  19.2710000
  45.2620000  22.8970000  19.8000000  45.4880000  21.4860000  20.8850000
  48.1000000  21.7130000  21.2000000  48.3760000  21.0820000  20.3540000
  47.5940000  21.1190000  21.9630000  48.9830000  22.1970000  21.6200000
  49.2890000  20.2220000  17.3800000  49.2230000  22.1390000  15.6760000
  45.4480000  18.9470000  14.4110000  45.9290000  17.7570000  14.0080000
  46.1890000  16.8210000  14.7460000  46.1380000  17.6890000  12.5150000
  46.1450000  16.6370000  12.2220000  45.2980000  18.1570000  11.9970000
  47.4810000  18.3320000  12.1130000  48.2290000  18.0620000  12.8620000
  47.8170000  17.8900000  11.1730000  47.4490000  19.8700000  11.9720000
  47.1850000  20.3170000  12.9330000  48.4570000  20.2150000  11.7320000
  46.4800000  20.3940000  10.8910000  45.4520000  20.1390000  11.1560000
  46.5330000  21.4840000  10.8590000  46.8010000  19.8470000   9.4910000
  47.8280000  20.1060000   9.2260000  46.7300000  18.7570000   9.5090000
  45.8470000  20.3880000   8.4110000  44.8140000  20.1730000   8.6930000
  45.9510000  21.4730000   8.3480000  46.1340000  19.7700000   7.0300000
  45.4540000  20.2210000   6.3040000  47.1500000  20.0310000   6.7280000
  45.9230000  18.2680000   7.0420000  44.8980000  17.9550000   7.2250000
  46.8520000  17.3400000   6.8370000  46.5650000  16.2920000   6.8640000
  48.3250000  17.5920000   6.5920000  48.7010000  18.3380000   7.2960000
  48.8810000  16.6720000   6.7850000  48.6090000  18.0630000   5.1530000
  48.1830000  19.0590000   5.0190000  49.6890000  18.1610000   5.0180000
  48.0440000  17.1340000   4.0600000  48.5470000  16.1660000   4.1010000
  46.9800000  16.9620000   4.2350000  48.2120000  17.7680000   2.6690000
  47.7580000  18.7610000   2.6850000  49.2730000  17.9040000   2.4490000
  47.5500000  16.9530000   1.5450000  46.5210000  16.7210000   1.8280000
  47.5030000  17.5750000   0.6490000  48.3050000  15.6540000   1.2150000
  49.3740000  15.8700000   1.1510000  48.1650000  14.9320000   2.0220000
  47.8610000  15.0290000  -0.1200000  48.0510000  15.7400000  -0.9270000
  48.4760000  14.1490000  -0.3190000  46.3790000  14.6230000  -0.1510000
  46.1350000  14.2020000  -1.1290000  45.7310000  15.4860000   0.0150000
  46.1690000  13.8730000   0.6140000   8.1920000  46.9930000  -2.1320000
   8.1230000  46.9490000  -3.2210000   7.8090000  47.9610000  -1.8010000
   7.5620000  46.2070000  -1.7110000   9.6520000  46.8140000  -1.6850000
  10.2610000  47.6060000  -2.1270000  10.0290000  45.8620000  -2.0640000
   9.7970000  46.8460000  -0.1540000   9.2390000  46.0110000   0.2750000
   9.3580000  47.7710000   0.2260000  11.2680000  46.7540000   0.2920000
  11.8150000  47.6260000  -0.0730000  11.7200000  45.8780000  -0.1770000
  11.4430000  46.6320000   1.8200000  12.5100000  46.5840000   2.0480000
  11.0090000  45.6840000   2.1450000  10.8070000  47.7690000   2.6480000
  10.9650000  47.5410000   3.7040000   9.7280000  47.7850000   2.4850000
  11.3950000  49.1600000   2.3350000  11.2790000  49.3730000   1.2710000
  12.4670000  49.1490000   2.5450000  10.7380000  50.3070000   3.1260000
   9.6830000  50.3740000   2.8530000  11.2010000  51.2480000   2.8220000
  10.8500000  50.1590000   4.6550000  11.9000000  50.0380000   4.9290000
  10.3190000  49.2620000   4.9800000  10.2640000  51.3760000   5.3920000
   9.2000000  51.4600000   5.1610000  10.7500000  52.2850000   5.0310000
  10.4510000  51.2720000   6.9160000  11.5160000  51.1860000   7.1400000
   9.9640000  50.3630000   7.2760000   9.8720000  52.4960000   7.6500000
   8.7880000  52.5160000   7.5200000  10.2680000  53.4040000   7.1910000
  10.2080000  52.5290000   9.1540000   9.8080000  53.4530000   9.5760000
  11.2930000  52.5690000   9.2730000   9.6520000  51.3320000   9.9500000
  10.0930000  50.4050000   9.5770000   8.5720000  51.2680000   9.8020000
   9.9560000  51.4690000  11.4550000   9.5450000  52.4090000  11.8290000
  11.0360000  51.5000000  11.6180000   9.3920000  50.3230000  12.2570000
   9.6630000  49.1550000  12.0430000   8.5500000  50.7440000  13.2260000
   8.1210000  49.7810000  14.2340000   8.1190000  48.7670000  13.8250000
   7.0970000  50.0240000  14.5290000   9.0290000  49.8350000  15.4880000
   8.7120000  49.0350000  16.1620000   8.8910000  51.2010000  16.2010000
   7.8550000  51.3360000  16.5200000   9.1550000  52.0050000  15.5090000
   9.7600000  51.2720000  17.3650000   9.6990000  52.5390000  18.3590000
  10.5330000  52.0410000  19.6410000  10.0010000  51.0520000  20.5470000
   8.9090000  51.0930000  20.5480000  10.3450000  51.2840000  21.5590000
  10.4790000  49.6400000  20.1310000  10.2120000  49.4630000  19.0880000
   9.9580000  48.9030000  20.7440000  11.9500000  49.3160000  20.2550000
  12.4560000  49.5830000  21.6350000  12.3930000  50.6550000  21.8280000
  13.4950000  49.2540000  21.6950000  11.8430000  49.0300000  22.3480000
  12.1410000  47.8640000  19.9630000  11.7640000  47.6620000  18.9590000
  11.5850000  47.2850000  20.7020000  13.2060000  47.6330000  20.0240000
  12.7660000  50.0950000  19.2800000  12.3770000  49.8940000  18.2800000
  13.8100000  49.7880000  19.3630000  12.6610000  51.1550000  19.5140000
  10.4470000  53.6660000  17.7370000   8.2870000  52.7510000  18.7700000
  10.4150000  49.6550000  15.0800000  11.2560000  49.0030000  15.9010000
  10.9170000  48.3480000  16.8720000  12.7020000  49.1740000  15.5070000
  13.3140000  48.5410000  16.1520000  12.8380000  48.8410000  14.4760000
  13.1450000  50.6460000  15.6410000  12.7820000  51.2100000  14.7790000
  12.6780000  51.0880000  16.5230000  14.6710000  50.8140000  15.7770000
  14.9020000  51.8790000  15.8340000  14.9850000  50.3780000  16.7280000
  15.5080000  50.1710000  14.6520000  16.5600000  50.3960000  14.8380000
  15.4080000  49.0850000  14.7020000  15.1510000  50.6360000  13.2280000
  15.8650000  50.1900000  12.5330000  14.1650000  50.2520000  12.9610000
  15.1700000  52.1700000  13.0550000  14.3520000  52.6120000  13.6280000
  16.1020000  52.5680000  13.4610000  15.0450000  52.6160000  11.5860000
  14.9990000  53.7070000  11.5570000  15.9540000  52.3300000  11.0530000
  13.8000000  52.0480000  10.9320000  12.8680000  52.4760000  11.2930000
  13.7580000  51.0890000  10.0110000  12.7910000  50.7610000   9.6370000
  14.9500000  50.4020000   9.3690000  15.8870000  50.9180000   9.5880000
  15.0420000  49.3890000   9.7650000  14.7920000  50.3040000   7.8410000
  15.6890000  49.8380000   7.4260000  13.9500000  49.6490000   7.6090000
  14.5710000  51.6720000   7.1670000  13.6200000  52.0880000   7.5060000
  15.3570000  52.3670000   7.4700000  14.5570000  51.5590000   5.6340000
  15.5740000  51.3740000   5.2800000  13.9480000  50.7000000   5.3430000
  13.9930000  52.8240000   4.9640000  12.9940000  53.0150000   5.3600000
  14.6180000  53.6840000   5.2140000  13.9080000  52.6730000   3.4360000
  14.9170000  52.6110000   3.0230000  13.3990000  51.7370000   3.1990000
  13.1540000  53.8380000   2.7700000  12.1770000  53.9540000   3.2450000
  13.7080000  54.7660000   2.9220000  12.9490000  53.6030000   1.2650000
  12.3800000  54.4250000   0.8260000  12.3910000  52.6780000   1.1010000
  13.9090000  53.5280000   0.7510000 -37.7990000 -31.6090000   1.8320000
 -36.9770000 -31.4430000   1.1330000 -38.4250000 -32.4130000   1.4390000
 -37.3770000 -31.9240000   2.7890000 -38.6200000 -30.3200000   2.0000000
 -38.9060000 -29.9570000   1.0100000 -37.9980000 -29.5490000   2.4580000
 -39.8960000 -30.5150000   2.8390000 -40.5360000 -31.2550000   2.3550000
 -40.4470000 -29.5720000   2.8470000 -39.6450000 -30.9500000   4.2950000
 -39.0180000 -30.2070000   4.7910000 -39.1160000 -31.9050000   4.3200000
 -40.9790000 -31.0880000   5.0490000 -41.5590000 -31.8970000   4.6000000
 -41.5510000 -30.1670000   4.9180000 -40.8010000 -31.3430000   6.5560000
 -40.1700000 -30.5560000   6.9730000 -40.2850000 -32.2920000   6.7110000
 -42.1430000 -31.3570000   7.3140000 -42.7300000 -30.4910000   7.0020000
 -41.9390000 -31.2410000   8.3810000 -42.9570000 -32.6500000   7.0920000
 -42.5690000 -33.4380000   7.7400000 -42.8070000 -32.9870000   6.0640000
 -44.4780000 -32.4900000   7.2970000 -44.9710000 -33.2850000   6.7320000
 -44.8010000 -31.5460000   6.8540000 -45.0060000 -32.5750000   8.7420000
 -44.8820000 -33.5980000   9.1040000 -46.0800000 -32.3760000   8.7190000
 -44.3410000 -31.6140000   9.7430000 -44.2880000 -30.6070000   9.3230000
 -43.3190000 -31.9580000   9.9200000 -45.1150000 -31.5680000  11.0750000
 -45.4070000 -32.5830000  11.3520000 -46.0370000 -31.0010000  10.9300000
 -44.3210000 -30.9590000  12.2460000 -44.9750000 -30.9300000  13.1200000
 -44.0360000 -29.9290000  12.0180000 -43.0670000 -31.7900000  12.5790000
 -42.2690000 -31.5470000  11.8760000 -43.3060000 -32.8470000  12.4450000
 -42.5640000 -31.5860000  14.0210000 -43.3850000 -31.7640000  14.7180000
 -42.2270000 -30.5570000  14.1650000 -41.4320000 -32.5280000  14.3700000
 -40.7820000 -33.1550000  13.5470000 -41.2490000 -32.6050000  15.7080000
 -40.0310000 -33.2350000  16.2100000 -39.7490000 -34.0880000  15.5870000
 -40.2340000 -33.6080000  17.2170000 -38.8470000 -32.2330000  16.2790000
 -37.9580000 -32.8130000  16.5400000 -39.0740000 -31.1430000  17.3660000
 -38.1140000 -30.8660000  17.8090000 -39.6970000 -31.5660000  18.1580000
 -39.6990000 -29.9340000  16.8410000 -40.7020000 -29.0200000  17.7230000
 -42.1630000 -29.4720000  17.2150000 -42.8380000 -30.6110000  17.7790000
 -42.1070000 -31.3780000  18.0470000 -43.5070000 -31.0300000  17.0240000
 -43.6530000 -30.1800000  19.0240000 -42.9690000 -29.8200000  19.7930000
 -44.1700000 -31.0570000  19.4160000 -44.7070000 -29.1090000  18.8600000
 -45.5880000 -29.1130000  20.0620000 -46.0830000 -30.0830000  20.1320000
 -46.3270000 -28.3180000  19.9440000 -44.9750000 -28.9310000  20.9450000
 -44.0990000 -27.7510000  18.7560000 -43.4820000 -27.7180000  17.8570000
 -43.4860000 -27.5780000  19.6430000 -44.9050000 -27.0180000  18.6970000
 -45.5610000 -29.3490000  17.6580000 -44.9310000 -29.2730000  16.7710000
 -46.3400000 -28.5860000  17.6360000 -46.0010000 -30.3440000  17.7350000
 -40.5620000 -29.3840000  19.1600000 -40.5120000 -27.5930000  17.3410000
 -38.6810000 -31.6450000  14.9560000 -37.4790000 -31.2290000  14.5380000
 -36.4600000 -31.2780000  15.2090000 -37.5290000 -30.7160000  13.1140000
 -36.6610000 -31.1050000  12.5770000 -38.4180000 -31.1040000  12.6120000
 -37.5180000 -29.1760000  13.0570000 -36.6420000 -28.8270000  13.6090000
 -37.3920000 -28.8560000  12.0200000 -38.7690000 -28.4990000  13.6530000
 -38.9890000 -28.9520000  14.6220000 -38.5370000 -27.4510000  13.8550000
 -40.0370000 -28.5590000  12.7760000 -40.1880000 -29.5680000  12.3870000
 -40.8930000 -28.3290000  13.4140000 -40.0020000 -27.5350000  11.6230000
 -39.6650000 -26.5770000  12.0240000 -39.2740000 -27.8440000  10.8690000
 -41.3800000 -27.3070000  10.9690000 -42.1290000 -27.2020000  11.7570000
 -41.3590000 -26.3570000  10.4310000 -41.8270000 -28.4120000   9.9930000
 -41.7340000 -29.3890000  10.4710000 -42.8880000 -28.2760000   9.7700000
 -41.0210000 -28.3850000   8.7080000 -40.1200000 -28.9930000   8.7170000
 -41.3690000 -27.7510000   7.5910000 -40.7350000 -27.8340000   6.7120000
 -42.5680000 -26.8350000   7.4360000 -42.8580000 -26.4310000   8.4080000
 -42.3040000 -25.9800000   6.8100000 -43.7790000 -27.5640000   6.8260000
 -43.9430000 -28.4930000   7.3760000 -44.6660000 -26.9430000   6.9710000
 -43.6540000 -27.8780000   5.3240000 -43.6730000 -26.9450000   4.7590000
 -42.6960000 -28.3640000   5.1280000 -44.8080000 -28.7910000   4.8620000
 -44.7120000 -29.7630000   5.3500000 -45.7530000 -28.3590000   5.1990000
 -44.8860000 -29.0010000   3.3380000 -45.7520000 -29.6330000   3.1270000
 -45.0630000 -28.0390000   2.8530000 -43.6190000 -29.6460000   2.7420000
 -42.7700000 -28.9800000   2.9060000 -43.4040000 -30.5810000   3.2640000
 -43.7290000 -29.9240000   1.2310000 -44.0000000 -29.0030000   0.7100000
 -42.7480000 -30.2270000   0.8600000 -44.7450000 -31.0240000   0.8810000
 -44.7430000 -31.2090000  -0.1950000 -45.7550000 -30.7270000   1.1740000
 -44.4920000 -31.9550000   1.3920000 -15.4060000 -52.2270000  -3.6250000
 -14.9850000 -52.5310000  -4.5850000 -15.8200000 -51.2220000  -3.7310000
 -16.2180000 -52.9150000  -3.3770000 -14.3230000 -52.2560000  -2.5350000
 -13.4890000 -51.6230000  -2.8470000 -13.9390000 -53.2740000  -2.4400000
 -14.8470000 -51.7760000  -1.1690000 -15.6640000 -52.4280000  -0.8520000
 -15.2510000 -50.7660000  -1.2680000 -13.7470000 -51.7810000  -0.0900000
 -12.9320000 -51.1240000  -0.4000000 -13.3380000 -52.7900000  -0.0070000
 -14.2580000 -51.3410000   1.2940000 -15.0510000 -52.0180000   1.6170000
 -14.6850000 -50.3380000   1.2270000 -13.1210000 -51.3480000   2.3330000
 -12.3590000 -50.6230000   2.0370000 -12.6480000 -52.3320000   2.3310000
 -13.6040000 -51.0280000   3.7620000 -14.3740000 -51.7480000   4.0480000
 -14.0600000 -50.0360000   3.7820000 -12.4420000 -51.0890000   4.7740000
 -11.7620000 -50.2540000   4.5940000 -11.8700000 -52.0030000   4.6000000
 -12.8830000 -51.0910000   6.2520000 -11.9880000 -51.1480000   6.8750000
 -13.4590000 -51.9980000   6.4470000 -13.7170000 -49.8760000   6.7020000
 -13.9080000 -49.9840000   7.7720000 -14.6870000 -49.8930000   6.2010000
 -13.0290000 -48.5220000   6.4310000 -13.0150000 -48.3450000   5.3540000
 -11.9870000 -48.5680000   6.7530000 -13.7360000 -47.3300000   7.1110000
 -14.7790000 -47.3060000   6.7900000 -13.2750000 -46.4080000   6.7520000
 -13.6890000 -47.3290000   8.6550000 -14.2230000 -48.1960000   9.0490000
 -14.2150000 -46.4400000   9.0110000 -12.2510000 -47.3110000   9.2110000
 -11.7230000 -46.4620000   8.7710000 -11.7330000 -48.2180000   8.8920000
 -12.1590000 -47.2030000  10.7490000 -12.8100000 -46.3990000  11.0980000
 -11.1390000 -46.9360000  11.0300000 -12.5160000 -48.4780000  11.4820000
 -12.6330000 -49.5710000  10.9570000 -12.6980000 -48.2510000  12.8000000
 -12.9230000 -49.3710000  13.7110000 -13.1230000 -50.3020000  13.1740000
 -13.8010000 -49.1420000  14.3190000 -11.7170000 -49.5560000  14.6680000
 -11.9680000 -50.3210000  15.4080000 -11.4140000 -48.2290000  15.4040000
 -12.3150000 -47.8520000  15.8950000 -11.0990000 -47.4980000  14.6550000
 -10.3430000 -48.3780000  16.3820000 -10.6160000 -48.9550000  17.8660000
 -10.8410000 -50.5240000  17.6040000  -9.7350000 -51.4300000  17.4370000
  -8.9040000 -50.9110000  16.9540000 -10.0520000 -52.2480000  16.7840000
  -9.3030000 -51.9940000  18.8140000  -8.9460000 -51.1740000  19.4400000
  -8.4750000 -52.6870000  18.6590000 -10.3250000 -52.7420000  19.6420000
  -9.6220000 -53.4430000  20.7570000  -8.9170000 -54.1600000  20.3330000
 -10.3650000 -53.9610000  21.3650000  -9.0950000 -52.7010000  21.3590000
 -11.3210000 -51.8110000  20.2510000 -11.8760000 -51.3270000  19.4460000
 -10.7850000 -51.0640000  20.8380000 -11.9980000 -52.3850000  20.8860000
 -11.0500000 -53.7650000  18.8300000 -11.6150000 -53.2490000  18.0520000
 -11.7290000 -54.3110000  19.4860000 -10.3200000 -54.4440000  18.3880000
  -9.3810000 -48.7650000  18.6710000 -11.8940000 -48.3910000  18.3760000
 -10.5270000 -49.9430000  13.9250000 -10.3420000 -51.2400000  13.6190000
 -11.1260000 -52.1270000  13.9140000  -9.0440000 -51.4720000  12.8760000
  -8.6560000 -50.5140000  12.5240000  -8.3110000 -51.8630000  13.5850000
  -9.1900000 -52.4610000  11.6930000  -8.2170000 -52.6110000  11.2200000
  -9.4860000 -53.4290000  12.1010000 -10.2270000 -52.0600000  10.6190000
 -10.5960000 -52.9760000  10.1520000 -11.0920000 -51.5980000  11.0990000
  -9.7160000 -51.1470000   9.4850000  -9.0440000 -51.7330000   8.8550000
 -10.5700000 -50.8630000   8.8650000  -8.9790000 -49.8740000   9.9400000
  -9.5610000 -49.3840000  10.7240000  -8.0170000 -50.1550000  10.3720000
  -8.7390000 -48.8510000   8.8120000  -9.6910000 -48.3910000   8.5390000
  -8.1140000 -48.0450000   9.2010000  -8.1140000 -49.4080000   7.5190000
  -8.8210000 -50.0960000   7.0510000  -7.9900000 -48.5690000   6.8310000
  -6.7590000 -50.0590000   7.7310000  -6.0500000 -49.4750000   8.3110000
  -6.3770000 -51.2250000   7.2150000  -5.3680000 -51.5840000   7.4020000
  -7.2590000 -52.1700000   6.4210000  -6.7870000 -53.1530000   6.3740000
  -8.2100000 -52.3120000   6.9390000  -7.5310000 -51.6710000   4.9880000
  -7.9530000 -50.6650000   5.0320000  -6.5930000 -51.6060000   4.4330000
  -8.5180000 -52.5940000   4.2440000  -7.9960000 -53.4940000   3.9130000
  -9.3000000 -52.9110000   4.9370000  -9.2060000 -51.9150000   3.0450000
  -9.9310000 -52.6110000   2.6180000  -9.7660000 -51.0490000   3.4050000
  -8.2390000 -51.4580000   1.9370000  -7.4920000 -50.7790000   2.3520000
  -7.7150000 -52.3300000   1.5400000  -9.0000000 -50.7370000   0.8080000
  -9.7560000 -51.4060000   0.3930000  -9.5280000 -49.8790000   1.2310000
  -8.0860000 -50.2400000  -0.3260000  -8.6900000 -49.6430000  -1.0130000
  -7.3130000 -49.5850000   0.0800000  -7.4250000 -51.3860000  -1.1090000
  -6.7240000 -51.9340000  -0.4770000  -6.8830000 -50.9970000  -1.9730000
  -8.1860000 -52.0820000  -1.4690000  56.1550000  -6.5130000  -0.0450000
  56.4950000  -7.2490000  -0.7760000  56.7500000  -6.6360000   0.8620000
  56.3350000  -5.5150000  -0.4510000  54.6580000  -6.7140000   0.2450000
  54.5040000  -7.7140000   0.6550000  54.1080000  -6.6630000  -0.6970000
  54.0720000  -5.6720000   1.2160000  53.0070000  -5.8800000   1.3420000
  54.1560000  -4.6770000   0.7740000  54.7520000  -5.6730000   2.5990000
  55.7940000  -5.3610000   2.4990000  54.7480000  -6.6890000   2.9990000
  54.0400000  -4.7390000   3.5920000  52.9960000  -5.0510000   3.6670000
  54.0520000  -3.7170000   3.2060000  54.6990000  -4.7650000   4.9860000
  55.7250000  -4.3990000   4.9020000  54.7560000  -5.7980000   5.3360000
  53.9560000  -3.9240000   6.0440000  53.9390000  -2.8770000   5.7330000
  54.5120000  -3.9760000   6.9820000  52.5190000  -4.4210000   6.2810000
  52.5500000  -5.4970000   6.4670000  51.9230000  -4.2620000   5.3800000
  51.8080000  -3.7370000   7.4610000  51.7110000  -2.6670000   7.2670000
  52.4110000  -3.8550000   8.3640000  50.4170000  -4.3610000   7.6700000
  50.5380000  -5.4450000   7.7270000  49.7960000  -4.1490000   6.7970000
  49.6730000  -3.9100000   8.9380000  50.2210000  -4.2610000   9.8160000
  48.6950000  -4.3940000   8.9510000  49.4870000  -2.3870000   9.0250000
  49.1330000  -2.0100000   8.0640000  50.4550000  -1.9240000   9.2250000
  48.4860000  -1.9620000  10.1150000  47.4860000  -2.2970000   9.8300000
  48.4550000  -0.8720000  10.1580000  48.8180000  -2.5170000  11.5130000
  49.8610000  -2.3120000  11.7610000  48.6860000  -3.6010000  11.5150000
  47.9000000  -1.8920000  12.5780000  46.8600000  -2.0220000  12.2720000
  48.0970000  -0.8210000  12.6610000  48.0880000  -2.5400000  13.9250000
  47.3640000  -3.4250000  14.3460000  49.1380000  -2.0400000  14.6090000
  49.4100000  -2.5660000  15.9450000  48.4810000  -2.6150000  16.5170000
  50.0910000  -1.8810000  16.4560000  50.0780000  -3.9620000  15.8710000
  49.5300000  -4.5780000  15.1530000  50.0540000  -4.6630000  17.2490000
  50.3840000  -5.6980000  17.1360000  49.0280000  -4.6790000  17.6270000
  50.9070000  -4.0010000  18.2210000  51.0370000  -4.6050000  19.7110000
  51.7780000  -6.0030000  19.4450000  53.1760000  -6.0590000  19.1060000
  53.7330000  -6.4920000  19.9410000  53.5570000  -5.0510000  18.9240000
  53.3550000  -6.8970000  17.8170000  54.4170000  -6.9150000  17.5660000
  52.8190000  -6.4140000  16.9980000  52.9040000  -8.3400000  17.8170000
  51.4150000  -8.4490000  17.7700000  51.0070000  -7.9670000  18.6600000
  51.1380000  -9.5040000  17.7530000  51.0580000  -7.9470000  16.8700000
  53.4410000  -9.0080000  16.5930000  54.5310000  -8.9670000  16.6200000
  53.0620000  -8.4820000  15.7160000  53.1040000 -10.0450000  16.5840000
  53.4120000  -9.0700000  19.0170000  54.4990000  -8.9860000  19.0450000
  53.1130000 -10.1170000  18.9440000  52.9710000  -8.6160000  19.9060000
  51.9350000  -3.7310000  20.5090000  49.6720000  -4.8930000  20.2300000
  51.4450000  -3.7810000  15.4090000  52.1120000  -4.8390000  14.9170000
  51.6800000  -5.9790000  14.9100000  53.4790000  -4.4590000  14.4030000
  53.7770000  -3.5150000  14.8650000  54.2040000  -5.2140000  14.7130000
  53.5050000  -4.2940000  12.8700000  52.7130000  -3.6060000  12.5650000
  54.4540000  -3.8330000  12.5880000  53.3600000  -5.6260000  12.1090000
  54.1550000  -6.3090000  12.4180000  52.4060000  -6.0890000  12.3660000
  53.4310000  -5.4190000  10.5860000  52.6220000  -4.7480000  10.2890000
  54.3720000  -4.9220000  10.3380000  53.3330000  -6.7240000   9.7720000
  53.4970000  -6.4880000   8.7190000  54.1320000  -7.4030000  10.0790000
  51.9730000  -7.4320000   9.9170000  51.8140000  -7.7220000  10.9570000
  51.1780000  -6.7330000   9.6470000  51.8680000  -8.6860000   9.0300000
  52.1030000  -8.4280000   7.9950000  52.6170000  -9.4150000   9.3470000
  50.4890000  -9.3070000   9.1300000  50.3950000 -10.1050000   9.8620000
  49.4300000  -8.9640000   8.4010000  48.4880000  -9.4840000   8.5520000
  49.3980000  -7.8670000   7.3560000  48.8130000  -7.0270000   7.7370000
  50.4050000  -7.5030000   7.1400000  48.7450000  -8.3580000   6.0560000
  49.2760000  -9.2400000   5.6940000  47.7250000  -8.6710000   6.2890000
  48.6840000  -7.2940000   4.9400000  48.1850000  -7.7290000   4.0710000
  48.0580000  -6.4650000   5.2750000  50.0540000  -6.7290000   4.5050000
  49.9070000  -6.0810000   3.6380000  50.4430000  -6.0970000   5.3050000
  51.1150000  -7.7950000   4.1630000  52.0360000  -7.2890000   3.8670000
  51.3460000  -8.3680000   5.0630000  50.6830000  -8.7480000   3.0310000
  49.7420000  -9.2380000   3.2910000  50.4990000  -8.1580000   2.1300000
  51.7290000  -9.8340000   2.7150000  51.3950000 -10.3980000   1.8420000
  52.6780000  -9.3620000   2.4530000  51.9490000 -10.8230000   3.8720000
  52.6380000 -11.6120000   3.5640000  51.0040000 -11.2860000   4.1620000
  52.3750000 -10.3210000   4.7440000 -45.2580000 -19.4080000  -0.3800000
 -45.7040000 -19.5220000  -1.3700000 -44.1710000 -19.4530000  -0.4790000
 -45.5370000 -18.4270000   0.0120000 -45.7660000 -20.5070000   0.5600000
 -45.5460000 -21.4820000   0.1190000 -46.8520000 -20.4180000   0.6370000
 -45.1350000 -20.4330000   1.9630000 -45.3570000 -19.4660000   2.4200000
 -44.0500000 -20.5060000   1.8650000 -45.6260000 -21.5650000   2.8850000
 -44.9910000 -21.5950000   3.7720000 -45.5040000 -22.5200000   2.3680000
 -47.0950000 -21.4000000   3.3260000 -47.7190000 -21.1600000   2.4620000
 -47.1730000 -20.5580000   4.0160000 -47.6790000 -22.6670000   3.9780000
 -47.7230000 -23.4560000   3.2250000 -48.7080000 -22.4550000   4.2730000
 -46.9050000 -23.2030000   5.1990000 -45.8800000 -23.4450000   4.9080000
 -47.3710000 -24.1380000   5.5140000 -46.8850000 -22.2470000   6.4050000
 -47.9110000 -22.0130000   6.6960000 -46.3960000 -21.3110000   6.1290000
 -46.1360000 -22.8830000   7.5920000 -45.1120000 -23.0980000   7.2810000
 -46.6000000 -23.8380000   7.8490000 -46.0850000 -21.9900000   8.8440000
 -45.7070000 -21.0040000   8.5650000 -45.3680000 -22.4250000   9.5440000
 -47.4360000 -21.8360000   9.5700000 -47.7820000 -22.8200000   9.8930000
 -48.1840000 -21.4260000   8.8880000 -47.2950000 -20.9040000  10.7890000
 -46.9610000 -19.9240000  10.4420000 -46.5170000 -21.2930000  11.4490000
 -48.5890000 -20.7170000  11.6030000 -49.3870000 -20.3590000  10.9480000
 -48.4090000 -19.9400000  12.3480000 -49.0500000 -21.9940000  12.3310000
 -48.2080000 -22.4060000  12.8910000 -49.3630000 -22.7450000  11.6030000
 -50.2100000 -21.7020000  13.3050000 -51.0780000 -21.3320000  12.7540000
 -49.9080000 -20.9270000  14.0120000 -50.6030000 -22.9310000  14.0860000
 -51.6410000 -23.5470000  13.9100000 -49.6710000 -23.2690000  14.9990000
 -49.9060000 -24.4300000  15.8510000 -50.2880000 -25.2590000  15.2500000
 -50.6520000 -24.1780000  16.6090000 -48.5820000 -24.8660000  16.5380000
 -48.7490000 -25.7990000  17.0830000 -48.0600000 -23.7850000  17.5100000
 -48.3150000 -22.7980000  17.1160000 -46.9720000 -23.8560000  17.5850000
 -48.6370000 -23.9320000  18.8360000 -47.9640000 -24.9000000  19.9450000
 -46.7220000 -24.0210000  20.4830000 -46.8530000 -23.1200000  21.6060000
 -45.8620000 -22.9520000  22.0360000 -47.4730000 -23.5830000  22.3780000
 -47.4730000 -21.7740000  21.1630000 -47.7780000 -21.2250000  22.0550000
 -48.3660000 -21.9720000  20.5680000 -46.6240000 -20.8120000  20.3640000
 -45.3980000 -20.4060000  21.1150000 -45.6970000 -19.9990000  22.0820000
 -44.8770000 -19.6470000  20.5300000 -44.7600000 -21.2810000  21.2480000
 -46.2140000 -21.3800000  19.0490000 -47.1170000 -21.6090000  18.4810000
 -45.6360000 -22.2880000  19.2290000 -45.6110000 -20.6370000  18.5240000
 -47.4290000 -19.5860000  20.1010000 -48.3260000 -19.8670000  19.5490000
 -46.8200000 -18.9020000  19.5080000 -47.6890000 -19.1270000  21.0560000
 -48.9530000 -25.0870000  21.0420000 -47.4140000 -26.1070000  19.2730000
 -47.5230000 -25.0750000  15.5670000 -47.5750000 -26.1310000  14.7380000
 -48.4790000 -26.9500000  14.7210000 -46.3730000 -26.1940000  13.8290000
 -45.4840000 -26.3700000  14.4370000 -46.4990000 -27.0470000  13.1590000
 -46.1950000 -24.8910000  13.0170000 -47.0970000 -24.7010000  12.4320000
 -46.0880000 -24.0480000  13.7030000 -44.9620000 -24.9120000  12.0890000
 -44.9460000 -23.9900000  11.5040000 -44.0600000 -24.9130000  12.7050000
 -44.9040000 -26.1210000  11.1340000 -43.9940000 -26.0530000  10.5350000
 -44.8280000 -27.0410000  11.7170000 -46.1140000 -26.2050000  10.1870000
 -47.0370000 -26.0190000  10.7390000 -46.0240000 -25.4250000   9.4280000
 -46.2330000 -27.5820000   9.5080000 -45.2800000 -27.8420000   9.0430000
 -46.4350000 -28.3410000  10.2670000 -47.3490000 -27.6130000   8.4470000
 -47.1050000 -26.9010000   7.6560000 -47.3710000 -28.6050000   7.9930000
 -48.6960000 -27.3210000   9.0810000 -48.9840000 -28.0220000   9.8600000
 -49.4980000 -26.2940000   8.8160000 -50.4270000 -26.1990000   9.3720000
 -49.2850000 -25.2300000   7.7590000 -48.9430000 -24.3070000   8.2340000
 -48.5260000 -25.5290000   7.0330000 -50.6080000 -24.9370000   7.0320000
 -51.0430000 -25.8780000   6.6890000 -51.3040000 -24.4910000   7.7460000
 -50.4470000 -23.9980000   5.8220000 -49.9580000 -23.0760000   6.1420000
 -49.7990000 -24.4820000   5.0890000 -51.8000000 -23.6500000   5.1700000
 -52.3650000 -24.5680000   4.9940000 -52.3780000 -23.0440000   5.8700000
 -51.6780000 -22.8900000   3.8370000 -52.6580000 -22.4810000   3.5830000
 -50.9940000 -22.0460000   3.9490000 -51.2070000 -23.7950000   2.6840000
 -50.1950000 -24.1550000   2.8830000 -51.8580000 -24.6700000   2.6310000
 -51.2230000 -23.0730000   1.3250000 -52.1750000 -22.5550000   1.1980000
 -50.4350000 -22.3170000   1.3020000 -51.0320000 -24.0590000   0.1610000
 -51.0980000 -23.5350000  -0.7950000 -51.8060000 -24.8290000   0.1820000
 -50.0560000 -24.5450000   0.2270000  37.1550000  39.8200000   1.6830000
  38.0570000  39.9000000   2.2940000  36.3230000  39.5570000   2.3380000
  36.9570000  40.7980000   1.2380000  37.3520000  38.7560000   0.5890000
  37.5570000  37.7930000   1.0620000  38.2340000  39.0190000   0.0020000
  36.1520000  38.6050000  -0.3670000  36.4220000  37.9040000  -1.1590000
  35.9660000  39.5660000  -0.8500000  34.8470000  38.1230000   0.2990000
  34.0520000  38.1560000  -0.4500000  34.5660000  38.8170000   1.0940000
  34.9280000  36.6920000   0.8680000  35.6340000  36.6630000   1.7010000
  35.3180000  36.0280000   0.0930000  33.5590000  36.1490000   1.3260000
  33.6530000  35.0810000   1.5340000  32.8570000  36.2500000   0.4960000
  32.9520000  36.8450000   2.5590000  31.9090000  36.5330000   2.6490000
  32.9480000  37.9270000   2.4120000  33.6750000  36.5050000   3.8760000
  34.7240000  36.8000000   3.8130000  33.6420000  35.4240000   4.0240000
  33.0180000  37.2220000   5.0720000  31.9500000  36.9930000   5.0910000
  33.1110000  38.3000000   4.9270000  33.6320000  36.8540000   6.4370000
  33.2130000  37.5290000   7.1860000  34.7100000  37.0240000   6.4110000
  33.3440000  35.3960000   6.8520000  33.7760000  34.7150000   6.1160000
  32.2640000  35.2290000   6.8510000  33.9030000  35.0250000   8.2370000
  34.9890000  35.1380000   8.2280000  33.6920000  33.9690000   8.4200000
  33.3240000  35.8590000   9.3950000  32.2350000  35.8860000   9.3230000
  33.6900000  36.8850000   9.3150000  33.7260000  35.2800000  10.7630000
  34.7940000  35.0510000  10.7530000  33.1960000  34.3390000  10.9240000
  33.4300000  36.2520000  11.9240000  32.3590000  36.4430000  12.0150000
  33.9110000  37.2100000  11.7160000  33.9550000  35.7390000  13.2450000
  34.1170000  34.5590000  13.5120000  34.2300000  36.7510000  14.0950000
  35.1470000  36.5000000  15.2050000  35.0860000  35.4630000  15.5450000
  34.8500000  37.1430000  16.0370000  36.6030000  36.8440000  14.7820000
  37.2900000  36.4360000  15.5270000  36.8120000  38.3780000  14.6490000
  35.8670000  38.8820000  14.4320000  37.4920000  38.5710000  13.8160000
  37.4320000  38.9390000  15.8440000  36.5920000  39.3500000  17.1620000
  36.3350000  37.9310000  17.8770000  37.3650000  37.2690000  18.6370000
  38.3370000  37.4540000  18.1730000  37.1770000  36.1930000  18.6130000
  37.3630000  37.7690000  20.1030000  37.5920000  38.8350000  20.1200000
  38.1530000  37.2460000  20.6440000  36.1090000  37.5950000  20.9290000
  36.4400000  37.8600000  22.3590000  37.1910000  37.1390000  22.6850000
  35.5320000  37.7530000  22.9540000  36.8290000  38.8760000  22.4440000
  35.0490000  38.5630000  20.5200000  34.7730000  38.3540000  19.4860000
  35.4530000  39.5740000  20.6030000  34.1870000  38.4400000  21.1770000
  35.5670000  36.2070000  20.8240000  35.2580000  36.0350000  19.7920000
  34.7100000  36.1180000  21.4930000  36.3490000  35.5030000  21.1140000
  37.4700000  40.1840000  18.0270000  35.2770000  39.9000000  16.7430000
  36.8620000  36.2200000  13.4920000  38.1260000  36.0270000  13.0710000
  39.1140000  36.2560000  13.7480000  38.1760000  35.5580000  11.6340000
  39.2170000  35.4680000  11.3160000  37.7200000  34.5680000  11.5760000
  37.4230000  36.5170000  10.6860000  37.4060000  36.0890000   9.6810000
  36.3840000  36.5980000  11.0120000  38.0360000  37.9290000  10.6190000
  38.2440000  38.2940000  11.6270000  38.9870000  37.8850000  10.0830000
  37.0900000  38.9240000   9.9240000  36.8480000  38.5490000   8.9270000
  36.1550000  38.9780000  10.4860000  37.7020000  40.3340000   9.8280000
  37.9680000  40.6680000  10.8330000  38.6280000  40.2920000   9.2510000
  36.7470000  41.3760000   9.2070000  35.8210000  41.3920000   9.7850000
  37.1980000  42.3660000   9.3040000  36.4050000  41.1330000   7.7230000
  35.9220000  40.1610000   7.6070000  35.6700000  41.8790000   7.4150000
  37.6300000  41.2700000   6.8400000  37.9500000  42.2950000   6.6740000
  38.3050000  40.2810000   6.2610000  39.1630000  40.5250000   5.6390000
  38.0010000  38.7990000   6.3530000  38.7230000  38.3300000   7.0250000
  37.0020000  38.6060000   6.7490000  38.1170000  38.1410000   4.9700000
  37.3110000  38.5080000   4.3320000  39.0630000  38.4470000   4.5180000
  38.0540000  36.6020000   5.0440000  38.8900000  36.2380000   5.6440000
  37.1370000  36.3020000   5.5550000  38.0950000  35.9200000   3.6630000
  38.1190000  34.8380000   3.8090000  37.1720000  36.1520000   3.1270000
  39.3000000  36.3380000   2.7980000  39.2520000  37.4100000   2.5980000
  40.2200000  36.1460000   3.3540000  39.3480000  35.5910000   1.4520000
  39.5740000  34.5390000   1.6350000  38.3650000  35.6320000   0.9790000
  40.3830000  36.1750000   0.4700000  40.3950000  35.5650000  -0.4350000
  40.0710000  37.1800000   0.1760000  41.8070000  36.2410000   1.0460000
  42.4980000  36.6280000   0.2940000  42.1410000  35.2460000   1.3460000
  41.8530000  36.8990000   1.9170000  32.8790000 -43.2360000   0.7300000
  33.2950000 -42.7340000  -0.1460000  32.7010000 -44.2810000   0.4670000
  33.6210000 -43.1990000   1.5300000  31.5650000 -42.5590000   1.1610000
  30.8980000 -42.5150000   0.2980000  31.7600000 -41.5320000   1.4750000
  30.8480000 -43.3300000   2.2840000  30.7820000 -44.3810000   1.9950000
  29.8250000 -42.9590000   2.3740000  31.5470000 -43.2080000   3.6530000
  31.3250000 -42.2330000   4.0900000  32.6300000 -43.2530000   3.5190000
  31.1420000 -44.3280000   4.6280000  31.7280000 -44.2340000   5.5450000
  31.4140000 -45.2860000   4.1780000  29.6460000 -44.3750000   4.9810000
  29.4510000 -45.3120000   5.5080000  29.0420000 -44.3920000   4.0710000
  29.2020000 -43.2120000   5.8830000  29.3630000 -42.2570000   5.3770000
  29.8240000 -43.2170000   6.7800000  27.7150000 -43.3500000   6.2610000
  27.5200000 -44.3820000   6.5580000  27.1050000 -43.1630000   5.3750000
  27.2500000 -42.4140000   7.3950000  26.2010000 -42.6320000   7.6070000
  27.2940000 -41.3800000   7.0460000  28.0510000 -42.5300000   8.7100000
  27.5280000 -41.9560000   9.4770000  29.0290000 -42.0610000   8.5790000
  28.2540000 -43.9810000   9.1970000  28.8720000 -44.5160000   8.4730000
  27.2930000 -44.4980000   9.2320000  28.9580000 -44.0680000  10.5670000
  29.8560000 -43.4470000  10.5330000  29.2920000 -45.0950000  10.7270000
  28.0940000 -43.6380000  11.7710000  27.7170000 -42.6250000  11.6180000
  28.7270000 -43.6150000  12.6610000  26.9200000 -44.6040000  12.0180000
  27.3140000 -45.6080000  12.1900000  26.2950000 -44.6540000  11.1240000
  26.0130000 -44.2000000  13.1950000  25.5900000 -43.2120000  13.0010000
  25.1870000 -44.9100000  13.2660000  26.7260000 -44.1740000  14.5270000
  26.7250000 -43.1910000  15.2500000  27.3540000 -45.3380000  14.8070000
  27.9610000 -45.5160000  16.1180000  27.8750000 -46.5730000  16.3830000
  27.4190000 -44.9360000  16.8690000  29.4660000 -45.1460000  16.1070000
  29.9470000 -45.7660000  15.3460000  30.1270000 -45.4130000  17.4800000
  31.0490000 -44.8310000  17.5580000  30.3790000 -46.4730000  17.5630000
  29.2310000 -45.0690000  18.5740000  29.7400000 -44.9870000  20.1040000
  29.4530000 -43.4520000  20.4920000  30.2630000 -42.3710000  19.9850000
  31.3110000 -42.6790000  19.9460000  30.1870000 -41.5280000  20.6770000
  29.7780000 -41.9400000  18.5790000  29.8090000 -42.8010000  17.9090000
  30.4630000 -41.1820000  18.1940000  28.3930000 -41.3560000  18.4400000
  27.3390000 -42.3660000  18.7270000  27.5000000 -43.2170000  18.0640000
  26.3650000 -41.9120000  18.5360000  27.4270000 -42.6720000  19.7700000
  28.2060000 -40.1800000  19.3390000  29.0090000 -39.4660000  19.1480000
  28.2280000 -40.5210000  20.3740000  27.2440000 -39.7230000  19.1040000
  28.2000000 -40.9000000  17.0360000  28.9660000 -40.1620000  16.7930000
  27.2120000 -40.4430000  16.9630000  28.2630000 -41.7680000  16.3790000
  28.8430000 -45.8420000  20.9240000  31.2080000 -45.2320000  20.1610000
  29.6270000 -43.7390000  15.7700000  30.7180000 -43.3600000  15.0760000
  31.6430000 -44.1050000  14.7980000  30.6470000 -41.8930000  14.7160000
  29.6600000 -41.6810000  14.3010000  30.7360000 -41.3180000  15.6400000
  31.7360000 -41.4230000  13.7280000  31.6920000 -40.3340000  13.6650000
  32.7220000 -41.6760000  14.1240000  31.5830000 -42.0000000  12.3070000
  31.6510000 -43.0890000  12.3410000  30.5990000 -41.7370000  11.9140000
  32.6690000 -41.4400000  11.3730000  32.5680000 -40.3530000  11.3450000
  33.6530000 -41.6620000  11.7920000  32.6160000 -41.9660000   9.9270000
  31.6470000 -41.7200000   9.4860000  33.3770000 -41.4340000   9.3510000
  32.8630000 -43.4840000   9.8060000  33.7810000 -43.7490000  10.3340000
  32.0450000 -44.0220000  10.2900000  32.9660000 -43.9620000   8.3440000
  32.8930000 -45.0520000   8.3310000  32.1120000 -43.5880000   7.7750000
  34.2840000 -43.5600000   7.7080000  35.1210000 -44.2070000   7.9570000
  34.4820000 -42.5490000   6.8670000  35.4780000 -42.3880000   6.4630000
  33.4500000 -41.5280000   6.4370000  33.2230000 -41.6820000   5.3800000
  32.5180000 -41.6340000   6.9960000  33.9960000 -40.0990000   6.6170000
  34.3680000 -39.9850000   7.6370000  34.8450000 -39.9530000   5.9460000
  32.9490000 -38.9970000   6.3570000  32.1680000 -39.0610000   7.1170000
  33.4350000 -38.0260000   6.4750000  32.3010000 -39.0720000   4.9610000
  33.0850000 -39.1030000   4.2020000  31.7290000 -39.9990000   4.8770000
  31.3800000 -37.8660000   4.6900000  30.6190000 -37.7920000   5.4700000
  31.9850000 -36.9590000   4.7530000  30.7030000 -37.9000000   3.3030000
  30.6170000 -36.8720000   2.9430000  31.3430000 -38.4270000   2.5920000
  29.2890000 -38.5150000   3.2860000  28.6360000 -37.9230000   3.9310000
  28.8910000 -38.4440000   2.2720000  29.2250000 -39.9830000   3.7330000
  28.2140000 -40.3740000   3.5970000  29.4840000 -40.0710000   4.7900000
  29.9140000 -40.5910000   3.1430000  44.1520000  34.1540000  -0.4910000
  43.6270000  34.9990000  -0.9430000  43.4030000  33.4820000  -0.0670000
  44.6950000  33.6220000  -1.2750000  45.1170000  34.6460000   0.6010000
  44.5500000  35.1420000   1.3920000  45.7900000  35.3900000   0.1710000
  45.9540000  33.5070000   1.2090000  46.6490000  33.9320000   1.9360000
  46.5510000  33.0530000   0.4150000  45.1040000  32.4180000   1.8960000
  44.4390000  31.9530000   1.1660000  44.4780000  32.8820000   2.6600000
  45.9860000  31.3200000   2.5200000  46.6980000  31.7620000   3.2190000
  46.5670000  30.8680000   1.7140000  45.2010000  30.1950000   3.2240000
  45.7630000  29.2700000   3.0820000  44.2320000  30.0530000   2.7420000
  45.0160000  30.3820000   4.7450000  46.0000000  30.4460000   5.2140000
  44.5310000  29.4890000   5.1450000  44.1880000  31.6160000   5.1460000
  43.2020000  31.5590000   4.6800000  44.6800000  32.5210000   4.7820000
  44.0310000  31.7320000   6.6730000  45.0200000  31.8320000   7.1270000
  43.5840000  30.8150000   7.0600000  43.1660000  32.9460000   7.0630000
  42.1510000  32.8040000   6.6870000  43.5690000  33.8340000   6.5730000
  43.1170000  33.2140000   8.5800000  42.5870000  34.1560000   8.7340000
  44.1340000  33.3520000   8.9540000  42.4210000  32.1010000   9.3900000
  42.9330000  31.1530000   9.2170000  41.3950000  31.9870000   9.0320000
  42.3950000  32.3580000  10.9100000  43.4200000  32.3720000  11.2870000
  41.8880000  31.5190000  11.3910000  41.6920000  33.6730000  11.3020000
  40.6900000  33.6950000  10.8680000  42.2460000  34.5150000  10.8810000
  41.6000000  33.8820000  12.8270000  41.2760000  34.9030000  13.0370000
  42.5880000  33.7610000  13.2750000  40.6250000  32.9270000  13.4750000
  39.4150000  32.9840000  13.3220000  41.2420000  31.9990000  14.2270000
  40.4430000  30.9460000  14.8430000  39.7720000  30.5260000  14.0900000
  39.8410000  31.3700000  15.6510000  41.3310000  29.7910000  15.3870000
  40.6710000  28.9410000  15.5770000  42.0530000  30.1490000  16.7190000
  42.5960000  29.2750000  17.0850000  41.2940000  30.4020000  17.4640000
  42.9610000  31.2820000  16.6060000  44.5600000  31.1230000  16.8140000
  44.6950000  30.9690000  18.4130000  44.3880000  32.0640000  19.3010000
  44.3530000  33.0030000  18.7430000  45.1810000  32.1460000  20.0480000
  43.0240000  31.8180000  19.9910000  42.2480000  31.6990000  19.2320000
  42.7790000  32.6980000  20.5870000  42.8910000  30.6390000  20.9270000
  42.8770000  29.3430000  20.1870000  42.0230000  29.3500000  19.5080000
  42.7830000  28.5300000  20.9080000  43.8110000  29.2530000  19.6300000
  43.9940000  30.6150000  21.9360000  44.0030000  31.5680000  22.4670000
  44.9380000  30.4590000  21.4130000  43.8120000  29.7950000  22.6330000
  41.5970000  30.7530000  21.6570000  41.5940000  31.6840000  22.2270000
  41.4970000  29.8980000  22.3270000  40.7900000  30.7520000  20.9230000
  45.0230000  29.8460000  16.2030000  45.2270000  32.3920000  16.4050000
  42.2780000  29.4160000  14.3500000  42.8900000  28.2170000  14.3980000
  42.6170000  27.3550000  15.2190000  43.9190000  28.0040000  13.3030000
  44.8510000  27.6820000  13.7730000  43.5680000  27.1930000  12.6610000
  44.1950000  29.2620000  12.4440000  43.2950000  29.5270000  11.8860000
  44.4230000  30.1030000  13.1020000  45.3760000  29.0970000  11.4680000
  45.5210000  30.0350000  10.9270000  46.2850000  28.9230000  12.0480000
  45.2160000  27.9520000  10.4520000  46.1420000  27.8660000   9.8800000
  45.0790000  27.0090000  10.9860000  44.0470000  28.1450000   9.4720000
  43.1070000  28.1970000  10.0250000  44.1750000  29.0900000   8.9400000
  43.9800000  26.9910000   8.4540000  44.9350000  26.9240000   7.9290000
  43.8320000  26.0460000   8.9800000  42.8610000  27.1780000   7.4160000
  43.0190000  28.1230000   6.8920000  42.9430000  26.3810000   6.6750000
  41.4870000  27.1110000   8.0540000  41.2440000  26.1600000   8.5200000
  40.5670000  28.0710000   8.0350000  39.5990000  27.8880000   8.4940000
  40.7460000  29.4540000   7.4500000  39.9910000  30.1250000   7.8640000
  41.7190000  29.8540000   7.7450000  40.6450000  29.4600000   5.9140000
  40.7800000  30.4830000   5.5560000  41.4730000  28.8760000   5.5070000
  39.3090000  28.9120000   5.3710000  39.0680000  27.9530000   5.8350000
  38.5070000  29.6050000   5.6350000  39.3600000  28.7320000   3.8450000
  38.3430000  28.6880000   3.4500000  39.8390000  29.6060000   3.3980000
  40.1020000  27.4390000   3.4490000  41.0090000  27.3180000   4.0440000
  39.4560000  26.5920000   3.6880000  40.4790000  27.3890000   1.9570000
  40.7010000  26.3580000   1.6750000  39.6310000  27.7180000   1.3540000
  41.7160000  28.2530000   1.6530000  41.5450000  29.2760000   1.9960000
  42.5750000  27.8690000   2.2070000  42.0530000  28.2780000   0.1570000
  41.2070000  28.6550000  -0.4210000  42.3030000  27.2760000  -0.1980000
  42.9070000  28.9360000  -0.0150000  21.3100000 -47.1790000  -3.1580000
  21.0660000 -48.1630000  -3.5650000  21.8830000 -46.6260000  -3.9050000
  20.3780000 -46.6420000  -2.9700000  22.1130000 -47.3320000  -1.8580000
  23.0300000 -47.8870000  -2.0630000  21.5330000 -47.9180000  -1.1420000
  22.4650000 -45.9680000  -1.2400000  21.5490000 -45.3900000  -1.0960000
  23.0930000 -45.4050000  -1.9340000  23.1830000 -46.1130000   0.1130000
  24.0380000 -46.7830000   0.0040000  22.4930000 -46.5710000   0.8240000
  23.6720000 -44.7540000   0.6490000  22.8480000 -44.0380000   0.6450000
  24.4360000 -44.3650000  -0.0270000  24.2600000 -44.8290000   2.0710000
  24.6970000 -43.8580000   2.3130000  25.0700000 -45.5610000   2.0940000
  23.2100000 -45.1880000   3.1420000  22.8640000 -46.2110000   2.9820000
  22.3470000 -44.5270000   3.0390000  23.7780000 -45.0540000   4.5670000
  24.1220000 -44.0280000   4.7140000  24.6520000 -45.7010000   4.6690000
  22.7600000 -45.3930000   5.6740000  21.8580000 -44.7930000   5.5330000
  23.1870000 -45.1040000   6.6360000  22.3840000 -46.8870000   5.7290000
  23.2930000 -47.4770000   5.8560000  21.9230000 -47.1920000   4.7870000
  21.4150000 -47.1940000   6.8860000  20.4610000 -46.6980000   6.7010000
  21.8280000 -46.7800000   7.8080000  21.1810000 -48.7080000   7.0660000
  22.1270000 -49.1880000   7.3240000  20.8600000 -49.1340000   6.1130000
  20.1220000 -49.0520000   8.1350000  20.0860000 -50.1360000   8.2570000
  19.1410000 -48.7460000   7.7660000  20.3500000 -48.3980000   9.5140000
  19.5450000 -48.7060000  10.1840000  20.2790000 -47.3130000   9.4160000
  21.7000000 -48.7670000  10.1560000  22.5270000 -48.4910000   9.4980000
  21.7520000 -49.8460000  10.3200000  21.8770000 -48.0530000  11.4730000
  22.4440000 -46.9810000  11.5770000  21.3110000 -48.7370000  12.4910000
  21.5090000 -48.2840000  13.8640000  20.6260000 -48.5760000  14.4380000
  21.6060000 -47.1960000  13.9130000  22.7490000 -48.9720000  14.4910000
  22.6860000 -50.0340000  14.2370000  22.7780000 -48.8390000  16.0410000
  23.7960000 -48.9560000  16.4220000  22.1740000 -49.6510000  16.4530000
  22.2010000 -47.5910000  16.5230000  23.1010000 -46.3320000  17.0200000
  23.7520000 -46.8710000  18.3950000  25.1700000 -47.0940000  18.5080000
  25.7040000 -46.1920000  18.1970000  25.4600000 -47.9170000  17.8510000
  25.5240000 -47.4340000  19.9740000  26.6060000 -47.5530000  20.0460000
  25.0580000 -48.3800000  20.2530000  25.1510000 -46.4420000  21.0500000
  23.6920000 -46.4990000  21.3600000  23.1400000 -46.2190000  20.4620000
  23.4770000 -45.8020000  22.1720000  23.4390000 -47.5190000  21.6540000
  25.8890000 -46.7900000  22.2980000  26.9580000 -46.7110000  22.0920000
  25.6310000 -47.8100000  22.5850000  25.6040000 -46.0870000  23.0820000
  25.5160000 -45.0460000  20.6660000  26.5850000 -45.0250000  20.4490000
  25.2810000 -44.3830000  21.5000000  24.9340000 -44.7720000  19.7850000
  24.1900000 -46.0760000  16.0400000  22.1760000 -45.2230000  17.3840000
  23.9650000 -48.4210000  13.9160000  25.0920000 -49.1550000  13.9380000
  25.1370000 -50.3290000  14.2690000  26.3120000 -48.3610000  13.5400000
  26.1230000 -47.3020000  13.7250000  27.1420000 -48.6580000  14.1840000
  26.7110000 -48.5620000  12.0670000  27.6810000 -48.0850000  11.9160000
  26.8400000 -49.6260000  11.8540000  25.7020000 -47.9500000  11.0780000
  24.7960000 -48.5600000  11.0480000  25.4150000 -46.9560000  11.4280000
  26.2910000 -47.8270000   9.6620000  27.2590000 -47.3250000   9.7240000
  26.4620000 -48.8250000   9.2530000  25.3770000 -47.0200000   8.7240000
  24.4330000 -47.5490000   8.5780000  25.1420000 -46.0630000   9.1960000
  26.0270000 -46.7370000   7.3590000  25.4000000 -46.0260000   6.8180000
  26.9960000 -46.2600000   7.5170000  26.2220000 -47.9950000   6.4950000
  26.9500000 -48.6470000   6.9820000  25.2770000 -48.5390000   6.4440000
  26.7370000 -47.6170000   5.1200000  27.5890000 -46.9410000   5.1240000
  26.2310000 -48.0010000   3.9510000  26.6900000 -47.6380000   3.0340000
  25.0660000 -48.9450000   3.7480000  24.7900000 -49.4490000   4.6770000
  24.1990000 -48.3680000   3.4180000  25.3840000 -50.0070000   2.6790000
  25.4190000 -49.5290000   1.6980000  26.3740000 -50.4280000   2.8700000
  24.3610000 -51.1600000   2.6550000  24.5970000 -51.8280000   1.8250000
  24.4650000 -51.7400000   3.5750000  22.8980000 -50.6940000   2.5370000
  22.6500000 -50.0420000   3.3770000  22.7790000 -50.1140000   1.6190000
  21.9170000 -51.8810000   2.5410000  22.0700000 -52.4850000   1.6440000
  22.1400000 -52.5190000   3.3980000  20.4430000 -51.4440000   2.6380000
  19.8100000 -52.3340000   2.6290000  20.2850000 -50.9550000   3.6020000
  19.9820000 -50.4860000   1.5230000  18.9390000 -50.2220000   1.7090000
  20.5540000 -49.5570000   1.5690000  20.1000000 -51.0860000   0.1110000
  19.7120000 -50.3850000  -0.6310000  19.5260000 -52.0130000   0.0420000
  21.1430000 -51.2980000  -0.1350000  14.9060000 -50.0720000   0.4430000
  15.1890000 -50.8280000  -0.2920000  15.0860000 -49.0840000   0.0140000
  13.8370000 -50.1630000   0.6450000  15.7150000 -50.2500000   1.7360000
  16.7800000 -50.2040000   1.4970000  15.5130000 -51.2360000   2.1590000
  15.3710000 -49.1630000   2.7670000  14.3030000 -49.2110000   2.9900000
  15.5670000 -48.1820000   2.3280000  16.1670000 -49.2970000   4.0780000
  17.2370000 -49.2370000   3.8680000  15.9670000 -50.2740000   4.5250000
  15.7690000 -48.1840000   5.0610000  14.6930000 -48.2430000   5.2410000
  15.9670000 -47.2230000   4.5810000  16.5020000 -48.2210000   6.4160000
  17.5740000 -48.0980000   6.2480000  16.3490000 -49.1990000   6.8770000
  15.9900000 -47.0930000   7.3400000  14.9070000 -47.1730000   7.4560000
  16.1830000 -46.1480000   6.8280000  16.6430000 -46.9740000   8.7330000
  16.5420000 -45.9340000   9.0500000  17.7150000 -47.1700000   8.6610000
  16.0110000 -47.8440000   9.8390000  14.9310000 -47.6810000   9.8520000
  16.3950000 -47.5050000  10.8030000  16.3120000 -49.3450000   9.6970000
  17.3850000 -49.4790000   9.5460000  15.8040000 -49.7400000   8.8140000
  15.8810000 -50.1830000  10.9130000  16.3730000 -49.8090000  11.8140000
  16.2420000 -51.2000000  10.7460000  14.3520000 -50.2010000  11.1220000
  13.8680000 -50.4620000  10.1780000  14.0140000 -49.1970000  11.3860000
  13.8650000 -51.1800000  12.2090000  12.7740000 -51.2080000  12.1870000
  14.1590000 -50.8000000  13.1890000  14.4180000 -52.6090000  12.0410000
  15.4970000 -52.5750000  12.2050000  14.2560000 -52.9550000  11.0190000
  13.7930000 -53.6240000  13.0220000  13.0620000 -54.2520000  12.5090000
  13.2660000 -53.0920000  13.8170000  14.8470000 -54.5020000  13.6510000
  15.7650000 -55.0220000  13.0380000  14.6740000 -54.6070000  14.9830000
  15.8170000 -54.9720000  15.8100000  16.4980000 -55.6450000  15.2850000
  15.4430000 -55.4960000  16.6940000  16.5530000 -53.6870000  16.2770000
  17.3890000 -53.9630000  16.9260000  15.5880000 -52.7680000  17.0630000
  14.9800000 -53.3600000  17.7510000  14.9230000 -52.2720000  16.3510000
  16.3300000 -51.7530000  17.7980000  16.9140000 -52.0140000  19.2840000
  15.7980000 -51.3360000  20.2190000  14.5810000 -52.0270000  20.5620000
  14.7700000 -52.6500000  21.4400000  14.2620000 -52.6730000  19.7410000
  13.4840000 -50.9820000  20.8730000  13.8590000 -50.2900000  21.6280000
  12.6180000 -51.4990000  21.2890000  12.9520000 -50.1310000  19.7410000
  14.0020000 -49.2350000  19.1690000  14.4210000 -48.6330000  19.9770000
  13.5480000 -48.5970000  18.4100000  14.7820000 -49.8560000  18.7260000
  12.3840000 -50.9740000  18.6460000  11.6270000 -51.6370000  19.0700000
  13.1910000 -51.5530000  18.1950000  11.9310000 -50.3180000  17.9010000
  11.8580000 -49.2660000  20.2750000  11.0680000 -49.9060000  20.6700000
  11.4720000 -48.6480000  19.4630000  12.2680000 -48.6370000  21.0670000
  16.9390000 -53.4780000  19.5500000  18.1760000 -51.2400000  19.4300000
  17.0320000 -52.9250000  15.1290000  18.2120000 -53.2560000  14.5720000
  18.8960000 -54.1990000  14.9400000  18.6010000 -52.3230000  13.4470000
  17.8160000 -51.5780000  13.2990000  19.5070000 -51.7890000  13.7420000
  18.8430000 -53.0880000  12.1320000  19.5420000 -53.9070000  12.3170000
  17.9020000 -53.5310000  11.8000000  19.4220000 -52.1910000  11.0190000
  18.7060000 -51.4080000  10.7600000  20.3150000 -51.6930000  11.4020000
  19.8170000 -52.9910000   9.7600000  20.3730000 -52.3410000   9.0820000
  20.5010000 -53.7880000  10.0580000  18.6340000 -53.6200000   8.9940000
  19.0300000 -54.3490000   8.2850000  17.9890000 -54.1680000   9.6840000
  17.8050000 -52.5850000   8.2120000  17.4580000 -51.8000000   8.8880000
  18.4420000 -52.1120000   7.4610000  16.5860000 -53.2200000   7.5200000
  16.9260000 -54.0600000   6.9110000  15.9040000 -53.6200000   8.2720000
  15.9010000 -52.2130000   6.6220000  16.5000000 -51.8800000   5.7780000
  14.6570000 -51.7610000   6.7480000  14.2760000 -51.0570000   6.0120000
  13.6950000 -52.0860000   7.8710000  14.2420000 -52.2220000   8.8060000
  13.0300000 -51.2320000   8.0190000  12.8350000 -53.3420000   7.6110000
  13.4590000 -54.2330000   7.7080000  12.0830000 -53.4000000   8.4000000
  12.1150000 -53.3580000   6.2450000  11.1480000 -53.8520000   6.3580000
  11.9190000 -52.3290000   5.9340000  12.9210000 -54.1090000   5.1660000
  13.9560000 -53.7590000   5.1840000  12.9420000 -55.1710000   5.4190000
  12.3810000 -53.9630000   3.7330000  12.9130000 -54.6750000   3.0990000
  11.3250000 -54.2390000   3.7080000  12.5660000 -52.5400000   3.1670000
  11.9790000 -51.8390000   3.7640000  13.6110000 -52.2400000   3.2640000
  12.1360000 -52.4090000   1.6940000  11.1270000 -52.8080000   1.5730000
  12.0940000 -51.3500000   1.4320000  13.0860000 -53.1250000   0.7170000
  12.7400000 -52.9890000  -0.3100000  13.1270000 -54.1960000   0.9250000
  14.0980000 -52.7230000   0.7970000 -38.4670000  25.2900000  -0.0580000
 -37.7640000  25.1860000  -0.8870000 -38.9930000  26.2410000  -0.1620000
 -39.1990000  24.4830000  -0.1230000 -37.7360000  25.2410000   1.2900000
 -37.0130000  26.0570000   1.3440000 -37.1870000  24.3010000   1.3750000
 -38.7420000  25.3610000   2.4430000 -39.4700000  24.5510000   2.3630000
 -39.2900000  26.3010000   2.3450000 -38.0700000  25.3100000   3.8220000
 -37.3620000  26.1370000   3.9060000 -37.5100000  24.3790000   3.9250000
 -39.1230000  25.4070000   4.9370000 -39.8070000  24.5590000   4.8600000
 -39.7180000  26.3100000   4.7860000 -38.5400000  25.4350000   6.3570000
 -37.9980000  24.5080000   6.5520000 -39.3890000  25.4640000   7.0440000
 -37.6110000  26.6400000   6.6150000 -37.9670000  27.4990000   6.0420000
 -36.6110000  26.4020000   6.2450000 -37.5190000  27.0560000   8.0980000
 -36.7290000  27.8020000   8.2030000 -37.2390000  26.1960000   8.7090000
 -38.8470000  27.6550000   8.6060000 -39.6180000  26.8820000   8.6090000
 -39.1740000  28.4340000   7.9140000 -38.7620000  28.2570000  10.0180000
 -38.0610000  29.0950000  10.0170000 -38.3870000  27.5070000  10.7170000
 -40.1510000  28.7390000  10.4790000 -40.8160000  27.8740000  10.5300000
 -40.5600000  29.4230000   9.7330000 -40.1200000  29.4520000  11.8440000
 -39.4680000  30.3250000  11.7670000 -39.6800000  28.7920000  12.5940000
 -41.5150000  29.9250000  12.3070000 -41.9160000  30.6040000  11.5520000
 -41.4040000  30.5030000  13.2270000 -42.5430000  28.7980000  12.5470000
 -42.6830000  28.2290000  11.6250000 -43.5060000  29.2520000  12.7870000
 -42.1410000  27.8470000  13.6950000 -42.0910000  28.4050000  14.6320000
 -41.1470000  27.4330000  13.5120000 -43.0870000  26.6820000  13.8780000
 -44.0140000  26.4050000  13.1340000 -42.7590000  25.9580000  14.9640000
 -43.3850000  24.6560000  15.1560000 -43.3750000  24.1100000  14.2100000
 -44.4210000  24.7870000  15.4780000 -42.5880000  23.8290000  16.1970000
 -42.9760000  22.8070000  16.1890000 -42.7180000  24.4240000  17.6150000
 -43.7600000  24.4060000  17.9440000 -42.3710000  25.4600000  17.5950000
 -41.9010000  23.6660000  18.5480000 -41.6860000  24.1780000  20.0540000
 -41.0230000  25.6220000  19.8270000 -39.6810000  25.7550000  19.3230000
 -39.6650000  26.5460000  18.5700000 -39.3750000  24.8240000  18.8390000
 -38.7190000  26.0960000  20.4860000 -37.6990000  26.0990000  20.1000000
 -38.7930000  25.3180000  21.2480000 -38.8960000  27.4150000  21.2040000
 -40.1500000  27.4400000  22.0130000 -40.9980000  27.3260000  21.3350000
 -40.2110000  28.3920000  22.5420000 -40.1230000  26.6090000  22.7200000
 -37.7470000  27.6130000  22.1370000 -36.8230000  27.6380000  21.5570000
 -37.7290000  26.7860000  22.8480000 -37.8850000  28.5590000  22.6630000
 -38.9160000  28.5600000  20.2420000 -38.0050000  28.5320000  19.6430000
 -38.9670000  29.4900000  20.8100000 -39.7970000  28.4620000  19.6060000
 -43.0220000  24.3560000  20.6790000 -40.6950000  23.2850000  20.7130000
 -41.1910000  23.8570000  15.8000000 -40.4320000  22.7560000  15.8980000
 -40.8100000  21.6900000  16.3470000 -39.0570000  22.9620000  15.3170000
 -38.6280000  23.8920000  15.6960000 -38.4200000  22.1400000  15.6490000
 -39.1070000  22.9790000  13.7740000 -38.1290000  22.6800000  13.3900000
 -39.8250000  22.2320000  13.4290000 -39.4580000  24.3570000  13.1740000
 -40.2970000  24.8030000  13.7130000 -38.6070000  25.0300000  13.2970000
 -39.8430000  24.2820000  11.6870000 -40.7770000  23.7210000  11.6050000
 -40.0450000  25.2930000  11.3290000 -38.7620000  23.6350000  10.7960000
 -37.8270000  24.1780000  10.9510000 -38.5850000  22.5990000  11.0920000
 -39.1010000  23.6870000   9.2920000 -39.5720000  24.6470000   9.0710000
 -38.1610000  23.6600000   8.7380000 -39.9900000  22.5450000   8.7510000
 -40.1350000  22.6860000   7.6780000 -39.4530000  21.6020000   8.8660000
 -41.3290000  22.4290000   9.4490000 -41.3680000  21.6780000  10.2340000
 -42.4220000  23.1380000   9.1820000 -43.3240000  22.9490000   9.7580000
 -42.5580000  24.2300000   8.1390000 -41.7250000  24.2100000   7.4330000
 -43.4720000  24.0600000   7.5660000 -42.6320000  25.6150000   8.8110000
 -43.3380000  25.5680000   9.6430000 -41.6560000  25.8590000   9.2350000
 -43.0790000  26.7500000   7.8690000 -44.1170000  26.5720000   7.5770000
 -43.0610000  27.6890000   8.4250000 -42.2280000  26.9030000   6.5940000
 -41.1800000  27.0480000   6.8670000 -42.2930000  25.9890000   6.0000000
 -42.6970000  28.0940000   5.7370000 -43.7680000  28.0000000   5.5420000
 -42.5500000  29.0220000   6.2940000 -41.9460000  28.1770000   4.3960000
 -40.8810000  28.3250000   4.5890000 -42.0570000  27.2310000   3.8630000
 -42.4640000  29.3220000   3.5070000 -43.5320000  29.1870000   3.3230000
 -42.3390000  30.2740000   4.0270000 -41.7260000  29.3790000   2.1600000
 -42.1140000  30.2020000   1.5570000 -41.8630000  28.4480000   1.6060000
 -40.6570000  29.5390000   2.3160000   6.8800000 -50.0280000   0.1250000
   6.5420000 -50.0600000  -0.9130000   6.4460000 -49.1430000   0.5960000
   6.5040000 -50.9210000   0.6290000   8.4140000 -49.9750000   0.1930000
   8.7580000 -49.1370000  -0.4170000   8.8340000 -50.8850000  -0.2410000
   8.9490000 -49.7860000   1.6230000   8.5000000 -48.8880000   2.0530000
  10.0270000 -49.6160000   1.5720000   8.6810000 -50.9770000   2.5610000
   9.1520000 -51.8730000   2.1530000   7.6070000 -51.1690000   2.6230000
   9.2340000 -50.6950000   3.9690000   8.6940000 -49.8520000   4.4040000
  10.2790000 -50.3920000   3.8830000   9.1530000 -51.9020000   4.9220000
   9.7320000 -51.6670000   5.8170000   9.6270000 -52.7670000   4.4520000
   7.7150000 -52.2700000   5.3310000   7.1600000 -52.5770000   4.4420000
   7.2130000 -51.3900000   5.7400000   7.6540000 -53.4110000   6.3630000
   8.2370000 -54.2580000   5.9970000   6.6170000 -53.7460000   6.4410000
   8.1470000 -53.0140000   7.7700000   7.5430000 -52.1830000   8.1400000
   9.1850000 -52.6770000   7.7270000   8.0360000 -54.2020000   8.7430000
   8.7280000 -54.9880000   8.4340000   7.0300000 -54.6200000   8.6720000
   8.3000000 -53.8410000  10.2160000   8.0730000 -54.7200000  10.8230000
   7.6070000 -53.0520000  10.5150000   9.7430000 -53.3920000  10.5170000
   9.9120000 -52.3950000  10.1030000  10.4400000 -54.0730000  10.0230000
  10.0560000 -53.3910000  12.0280000  11.0950000 -53.0860000  12.1670000
   9.9660000 -54.4110000  12.4070000   9.1540000 -52.4610000  12.8610000
   8.1030000 -52.7090000  12.6950000   9.3090000 -51.4350000  12.5200000
   9.4520000 -52.5530000  14.3710000  10.5150000 -52.3830000  14.5500000
   9.2080000 -53.5540000  14.7310000   8.6550000 -51.5420000  15.1660000
   9.1770000 -50.6140000  15.7620000   7.3240000 -51.7650000  15.1050000
   6.3990000 -50.9090000  15.8500000   5.8260000 -50.3200000  15.1290000
   6.9340000 -50.2110000  16.4990000   5.4050000 -51.7320000  16.7240000
   4.5700000 -51.0710000  16.9690000   5.9600000 -52.1840000  18.1020000
   5.3880000 -53.0430000  18.4620000   5.7920000 -51.3640000  18.8050000
   7.3870000 -52.4760000  18.1230000   7.9920000 -53.9830000  18.1320000
   7.4230000 -54.6060000  19.5090000   6.3310000 -55.5500000  19.5010000
   6.6820000 -56.4790000  19.0450000   5.4980000 -55.1670000  18.9060000
   5.8850000 -55.8280000  20.9550000   6.7660000 -56.0500000  21.5590000
   5.2400000 -56.7090000  20.9630000   5.1200000 -54.7540000  21.6900000
   3.8230000 -54.4640000  21.0120000   4.0240000 -54.0730000  20.0140000
   3.2810000 -53.7190000  21.5960000   3.2440000 -55.3860000  20.9470000
   4.8190000 -55.2420000  23.0680000   5.7620000 -55.4450000  23.5780000
   4.2240000 -56.1540000  22.9940000   4.2610000 -54.4690000  23.5980000
   5.9050000 -53.4890000  21.8140000   6.8410000 -53.7150000  22.3260000
   5.3190000 -52.7660000  22.3840000   6.1110000 -53.1100000  20.8120000
   7.4610000 -54.7660000  16.9840000   9.4700000 -53.8660000  18.2810000
   4.8660000 -52.8840000  16.0170000   3.7910000 -52.7100000  15.2230000
   3.3110000 -51.6190000  14.9510000   3.2610000 -54.0170000  14.6780000
   3.3460000 -54.7800000  15.4540000   2.2010000 -53.9110000  14.4380000
   4.0440000 -54.4760000  13.4350000   5.1130000 -54.4740000  13.6580000
   3.7640000 -55.5070000  13.2060000   3.7720000 -53.6040000  12.1970000
   2.7070000 -53.6420000  11.9560000   4.0240000 -52.5660000  12.4260000
   4.5900000 -54.0740000  10.9810000   5.6520000 -53.9450000  11.1990000
   4.4220000 -55.1420000  10.8270000   4.2400000 -53.3330000   9.6770000
   4.8720000 -53.7200000   8.8740000   3.2070000 -53.5610000   9.4080000
   4.4110000 -51.8050000   9.7620000   3.7360000 -51.4010000  10.5190000
   5.4330000 -51.5670000  10.0640000   4.1050000 -51.1320000   8.4150000
   4.8220000 -51.4900000   7.6720000   3.1090000 -51.4420000   8.0930000
   4.1340000 -49.6240000   8.5490000   3.7110000 -49.2410000   9.4740000
   4.6410000 -48.7650000   7.6710000   4.6070000 -47.7010000   7.8910000
   5.2130000 -49.1130000   6.3160000   6.2950000 -48.9600000   6.3210000
   5.0340000 -50.1650000   6.0850000   4.5860000 -48.2240000   5.2260000
   3.5010000 -48.3490000   5.2590000   4.7910000 -47.1750000   5.4500000
   5.0720000 -48.5350000   3.7970000   4.4400000 -48.0010000   3.0850000
   6.0860000 -48.1490000   3.6770000   5.0790000 -50.0350000   3.4460000
   5.3860000 -50.1420000   2.4030000   5.8490000 -50.5230000   4.0470000
   3.7400000 -50.7780000   3.6410000   3.2560000 -50.4530000   4.5640000
   3.0620000 -50.5330000   2.8210000   3.9320000 -52.3040000   3.7290000
   4.5260000 -52.5290000   4.6170000   2.9560000 -52.7740000   3.8720000
   4.6170000 -52.9260000   2.4970000   3.9900000 -52.7750000   1.6160000
   5.5760000 -52.4370000   2.3100000   4.8700000 -54.4280000   2.6910000
   5.3250000 -54.8530000   1.7940000   3.9320000 -54.9490000   2.8910000
   5.5450000 -54.5950000   3.5340000 -24.0980000  20.8270000   0.6790000
 -24.7870000  21.5560000   0.2470000 -24.2450000  19.8690000   0.1760000
 -23.0760000  21.1630000   0.4950000 -24.3550000  20.6770000   2.1870000
 -25.3870000  20.3550000   2.3390000 -24.2390000  21.6470000   2.6760000
 -23.4040000  19.6540000   2.8320000 -22.3720000  19.9950000   2.7280000
 -23.4890000  18.7030000   2.3010000 -23.7220000  19.4260000   4.3200000
 -24.7790000  19.1750000   4.4250000 -23.5450000  20.3490000   4.8770000
 -22.8740000  18.2890000   4.9170000 -21.8150000  18.5420000   4.8390000
 -23.0400000  17.3770000   4.3390000 -23.2280000  18.0270000   6.3900000
 -24.3050000  17.8700000   6.4670000 -22.9740000  18.9070000   6.9850000
 -22.5140000  16.7910000   6.9620000 -21.4360000  16.8820000   6.8120000
 -22.8500000  15.9090000   6.4140000 -22.8050000  16.6040000   8.4620000
 -23.8750000  16.7280000   8.6420000 -22.2880000  17.3790000   9.0320000
 -22.3620000  15.2160000   8.9540000 -21.3070000  15.0750000   8.7110000
 -22.9180000  14.4450000   8.4150000 -22.5460000  15.0050000  10.4670000
 -21.9800000  15.7670000  11.0070000 -22.1110000  14.0380000  10.7270000
 -24.0060000  15.0370000  10.9550000 -24.6120000  14.3500000  10.3610000
 -24.4200000  16.0410000  10.8350000 -24.0650000  14.6220000  12.4350000
 -23.4170000  15.2940000  13.0010000 -23.6550000  13.6150000  12.5360000
 -25.4880000  14.6380000  13.0250000 -26.1310000  14.0290000  12.3860000
 -25.8880000  15.6540000  13.0040000 -25.5560000  14.0700000  14.4610000
 -24.9110000  13.1920000  14.5390000 -26.5750000  13.7180000  14.6370000
 -25.2110000  15.0780000  15.5800000 -25.8850000  15.9350000  15.5150000
 -25.3710000  14.6130000  16.5550000 -23.7830000  15.5580000  15.5110000
 -22.8190000  14.8390000  15.6960000 -23.7090000  16.8600000  15.1830000
 -22.3940000  17.4400000  14.9320000 -22.0090000  17.0310000  13.9940000
 -21.7060000  17.1700000  15.7370000 -22.4750000  18.9920000  14.8340000
 -21.6170000  19.3480000  14.2590000 -22.4210000  19.7020000  16.2090000
 -23.0880000  20.5670000  16.1860000 -21.4040000  20.0520000  16.4070000
 -22.8190000  18.8130000  17.2820000 -23.5420000  19.3450000  18.6070000
 -25.0200000  19.7230000  18.0950000 -25.8360000  18.7810000  17.3680000
 -25.2340000  18.3230000  16.5800000 -26.6480000  19.3310000  16.8860000
 -26.4180000  17.6910000  18.3010000 -25.5960000  17.1600000  18.7830000
 -26.9730000  16.9770000  17.6900000 -27.3550000  18.1060000  19.4100000
 -27.8950000  16.8780000  20.0670000 -28.4570000  16.3000000  19.3310000
 -28.5520000  17.1780000  20.8850000 -27.0580000  16.2950000  20.4530000
 -26.6580000  18.9140000  20.4520000 -26.3000000  19.8340000  19.9870000
 -25.8100000  18.3340000  20.8180000 -27.3550000  19.1350000  21.2610000
 -28.5060000  18.8930000  18.8810000 -28.1210000  19.8250000  18.4650000
 -29.1910000  19.0990000  19.7040000 -28.9970000  18.3030000  18.1060000
 -23.6230000  18.2230000  19.5770000 -22.8650000  20.5980000  19.0200000
 -23.6890000  19.4100000  14.1460000 -23.8220000  19.1380000  12.8350000
 -22.9380000  18.6530000  12.1480000 -25.1960000  19.5180000  12.3320000
 -25.9040000  18.7530000  12.6560000 -25.4890000  20.4550000  12.8110000
 -25.2600000  19.6830000  10.8010000 -24.5280000  20.4290000  10.4850000
 -24.9930000  18.7350000  10.3280000 -26.6660000  20.1170000  10.3370000
 -27.3950000  19.3500000  10.6080000 -26.9490000  21.0190000  10.8840000
 -26.7720000  20.4290000   8.8300000 -27.8070000  20.6780000   8.5900000
 -26.1840000  21.3290000   8.6370000 -26.2740000  19.3410000   7.8550000
 -26.1930000  19.8110000   6.8720000 -25.2620000  19.0350000   8.1280000
 -27.1700000  18.0970000   7.6880000 -28.2080000  18.4120000   7.5620000
 -26.8770000  17.6030000   6.7590000 -27.0880000  17.0570000   8.8210000
 -26.0420000  16.8240000   9.0340000 -27.5170000  17.4640000   9.7390000
 -27.8510000  15.8040000   8.4520000 -28.9150000  15.8310000   8.6730000
 -27.3240000  14.6980000   7.9380000 -27.9700000  13.8470000   7.7380000
 -25.8740000  14.5020000   7.5440000 -25.3370000  15.4510000   7.4890000
 -25.3820000  13.8890000   8.3030000 -25.7470000  13.7680000   6.1990000
 -24.7240000  13.3990000   6.0990000 -26.4060000  12.8970000   6.1990000
 -26.0670000  14.6690000   4.9920000 -27.0690000  15.0890000   5.1000000
 -25.3600000  15.5010000   4.9790000 -25.9850000  13.8850000   3.6680000
 -25.0280000  13.3620000   3.6110000 -26.7670000  13.1230000   3.6650000
 -26.1490000  14.7630000   2.4130000 -26.2780000  14.0990000   1.5550000
 -27.0600000  15.3590000   2.5040000 -24.9470000  15.6980000   2.1580000
 -24.8500000  16.4000000   2.9890000 -24.0320000  15.1030000   2.1310000
 -25.0550000  16.5050000   0.8480000 -25.9310000  17.1550000   0.8870000
 -24.1780000  17.1510000   0.7650000 -25.1290000  15.6240000  -0.4110000
 -25.0660000  16.2420000  -1.3090000 -26.0690000  15.0700000  -0.4450000
 -24.3000000  14.9130000  -0.4300000 -46.3020000  -9.6320000   0.0280000
 -45.6250000  -9.5940000  -0.8270000 -46.1880000  -8.7040000   0.5930000
 -47.3270000  -9.6890000  -0.3430000 -45.9810000 -10.8560000   0.9030000
 -44.9300000 -10.8320000   1.1970000 -46.1270000 -11.7610000   0.3090000
 -46.8580000 -10.9460000   2.1630000 -46.6690000 -11.9090000   2.6420000
 -47.9090000 -10.9250000   1.8690000 -46.5890000  -9.8290000   3.1890000
 -46.8440000  -8.8560000   2.7640000 -45.5220000  -9.8180000   3.4230000
 -47.3850000 -10.0410000   4.4890000 -47.2280000 -11.0630000   4.8400000
 -48.4520000  -9.9280000   4.2900000 -46.9590000  -9.0560000   5.5930000
 -47.2940000  -8.0520000   5.3260000 -45.8690000  -9.0320000   5.6550000
 -47.5220000  -9.4470000   6.9720000 -47.1360000 -10.4300000   7.2480000
 -48.6090000  -9.5250000   6.9080000 -47.1360000  -8.4270000   8.0620000
 -47.6230000  -7.4720000   7.8510000 -46.0600000  -8.2470000   8.0150000
 -47.4840000  -8.8770000   9.4960000 -47.2570000  -8.0530000  10.1760000
 -46.8300000  -9.7060000   9.7720000 -48.9450000  -9.3090000   9.7320000
 -49.0590000  -9.5530000  10.7900000 -49.1420000 -10.2240000   9.1700000
 -49.9730000  -8.2320000   9.3370000 -49.8420000  -8.0020000   8.2780000
 -49.7670000  -7.3140000   9.8930000 -51.4450000  -8.6460000   9.5370000
 -51.6620000  -9.5060000   8.9000000 -52.0870000  -7.8310000   9.1930000
 -51.8220000  -8.9990000  10.9870000 -51.2200000  -9.8460000  11.3210000
 -52.8620000  -9.3300000  11.0050000 -51.6620000  -7.8090000  11.9550000
 -52.2960000  -6.9950000  11.6000000 -50.6330000  -7.4420000  11.9480000
 -52.0670000  -8.1470000  13.4040000 -53.0210000  -8.6790000  13.4190000
 -52.2180000  -7.2140000  13.9510000 -51.0360000  -8.9560000  14.1590000
 -50.1380000  -9.6040000  13.6450000 -51.2390000  -8.8680000  15.4890000
 -50.2650000  -9.4620000  16.3990000 -49.8460000 -10.3800000  15.9790000
 -50.7900000  -9.7270000  17.3200000 -49.1430000  -8.4510000  16.7610000
 -48.4650000  -8.9270000  17.4740000 -49.7540000  -7.1960000  17.4380000
 -50.3140000  -7.4990000  18.3260000 -50.4480000  -6.7190000  16.7410000
 -48.7490000  -6.2140000  17.8240000 -47.5960000  -6.5320000  18.9150000
 -46.4120000  -7.1410000  18.0070000 -45.6940000  -6.3110000  17.0730000
 -46.3850000  -5.5910000  16.6280000 -45.3020000  -6.9450000  16.2730000
 -44.5290000  -5.5680000  17.7710000 -44.9310000  -4.9590000  18.5820000
 -44.0610000  -4.9000000  17.0470000 -43.4070000  -6.3800000  18.3730000
 -42.3410000  -5.4410000  18.8280000 -41.9760000  -4.8760000  17.9690000
 -41.5320000  -6.0290000  19.2640000 -42.7630000  -4.7700000  19.5780000
 -43.8610000  -7.1620000  19.5600000 -44.6020000  -7.8910000  19.2270000
 -44.3100000  -6.4740000  20.2770000 -42.9980000  -7.6660000  19.9970000
 -42.8080000  -7.3150000  17.3740000 -43.5590000  -8.0580000  17.1000000
 -41.9480000  -7.8040000  17.8350000 -42.4940000  -6.7440000  16.4990000
 -47.1380000  -5.2510000  19.5190000 -48.0760000  -7.6120000  19.8230000
 -48.4000000  -8.0520000  15.5710000 -47.4730000  -8.9130000  15.0950000
 -47.2200000  -9.9890000  15.6130000 -46.7280000  -8.4410000  13.8600000
 -45.6650000  -8.6260000  14.0260000 -47.0400000  -9.0530000  13.0110000
 -46.9280000  -6.9530000  13.5030000 -47.9410000  -6.8120000  13.1200000
 -46.8220000  -6.3410000  14.4020000 -45.8890000  -6.4800000  12.4650000
 -44.8920000  -6.6210000  12.8870000 -45.9430000  -7.1070000  11.5720000
 -46.0330000  -5.0010000  12.0590000 -46.0170000  -4.3840000  12.9600000
 -45.1600000  -4.7220000  11.4660000 -47.3110000  -4.6930000  11.2490000
 -47.3220000  -5.2800000  10.3280000 -48.1840000  -5.0030000  11.8270000
 -47.4540000  -3.1910000  10.9210000 -48.5100000  -2.9230000  10.9900000
 -46.9340000  -2.5950000  11.6740000 -46.9610000  -2.7960000   9.5150000
 -47.6240000  -3.2460000   8.7740000 -47.0740000  -1.7140000   9.4150000
 -45.5090000  -3.1610000   9.2670000 -44.8020000  -2.6860000   9.9420000
 -45.0450000  -3.9620000   8.3100000 -43.9730000  -4.1220000   8.2370000
 -45.8660000  -4.7230000   7.2860000 -45.6180000  -5.7850000   7.3460000
 -46.9390000  -4.6420000   7.4740000 -45.5550000  -4.2320000   5.8610000
 -45.6730000  -3.1470000   5.8170000 -44.5120000  -4.4620000   5.6370000
 -46.4760000  -4.8750000   4.8050000 -46.4530000  -5.9610000   4.9160000
 -47.5000000  -4.5530000   5.0030000 -46.1290000  -4.4950000   3.3510000
 -46.8900000  -4.9140000   2.6890000 -46.1900000  -3.4090000   3.2490000
 -44.7420000  -4.9710000   2.8770000 -44.5560000  -4.5550000   1.8850000
 -43.9640000  -4.5760000   3.5340000 -44.6260000  -6.5050000   2.7990000
 -44.8620000  -6.9540000   3.7660000 -45.3570000  -6.8760000   2.0780000
 -43.2180000  -6.9580000   2.3790000 -42.9060000  -6.4060000   1.4900000
 -42.5070000  -6.7210000   3.1730000 -43.1680000  -8.4640000   2.0760000
 -42.1940000  -8.7340000   1.6630000 -43.9280000  -8.7270000   1.3380000
 -43.3400000  -9.0460000   2.9840000 -19.5580000  42.5960000  -1.0670000
 -19.7690000  43.6530000  -1.2390000 -20.3010000  41.9990000  -1.6000000
 -18.5690000  42.3780000  -1.4760000 -19.5900000  42.2850000   0.4370000
 -20.5700000  42.5570000   0.8360000 -18.8420000  42.9060000   0.9350000
 -19.3120000  40.7960000   0.7220000 -18.3540000  40.5220000   0.2760000
 -20.0760000  40.1950000   0.2240000 -19.2840000  40.4150000   2.2170000
 -19.1060000  39.3390000   2.2770000 -20.2630000  40.5960000   2.6650000
 -18.1860000  41.1300000   3.0350000 -17.3680000  41.4280000   2.3760000
 -17.7760000  40.4110000   3.7470000 -18.7060000  42.3490000   3.8250000
 -19.4140000  42.0060000   4.5820000 -19.2530000  43.0110000   3.1510000
 -17.6000000  43.1850000   4.4990000 -18.0710000  43.9650000   5.1020000
 -17.0270000  43.6920000   3.7200000 -16.6120000  42.3960000   5.3790000
 -15.9080000  43.1010000   5.8250000 -16.0270000  41.7350000   4.7360000
 -17.2530000  41.5570000   6.5020000 -16.4560000  41.0550000   7.0540000
 -17.8780000  40.7770000   6.0610000 -18.0910000  42.3990000   7.4840000
 -18.9640000  42.8040000   6.9680000 -17.4950000  43.2470000   7.8270000
 -18.5630000  41.6030000   8.7150000 -19.1260000  42.2770000   9.3630000
 -17.6890000  41.2670000   9.2780000 -19.4460000  40.3910000   8.3550000
 -18.8550000  39.6430000   7.8240000 -20.2340000  40.7220000   7.6750000
 -20.1040000  39.7370000   9.5850000 -20.8310000  38.9990000   9.2400000
 -20.6600000  40.4920000  10.1450000 -19.1000000  39.0420000  10.5220000
 -18.3250000  39.7480000  10.8300000 -18.6160000  38.2290000   9.9770000
 -19.7890000  38.4800000  11.7800000 -20.6050000  37.8150000  11.4880000
 -20.2280000  39.2980000  12.3550000 -18.8460000  37.7120000  12.6770000
 -17.6980000  37.4250000  12.3850000 -19.4400000  37.3670000  13.8370000
 -18.6280000  36.7570000  14.8850000 -17.8310000  36.1400000  14.4630000
 -19.2820000  36.1000000  15.4640000 -18.0490000  37.8260000  15.8540000
 -17.4670000  37.3130000  16.6230000 -19.1970000  38.6040000  16.5460000
 -19.8360000  37.9170000  17.1060000 -19.8010000  39.0870000  15.7730000
 -18.6930000  39.6400000  17.4360000 -18.2900000  39.3340000  18.9720000
 -17.4410000  40.6380000  19.3850000 -18.0780000  41.9160000  19.5950000
 -17.4370000  42.5210000  20.2410000 -19.0330000  41.7750000  20.1090000
 -18.2990000  42.6410000  18.2440000 -18.8320000  43.5730000  18.4380000
 -18.9270000  42.0210000  17.6020000 -17.0880000  43.0180000  17.4220000
 -16.1160000  43.8190000  18.2240000 -16.6290000  44.6950000  18.6240000
 -15.2960000  44.1260000  17.5730000 -15.7370000  43.1940000  19.0340000
 -16.3920000  41.8170000  16.8710000 -17.1170000  41.2170000  16.3190000
 -15.9980000  41.2380000  17.7070000 -15.5810000  42.1460000  16.2200000
 -17.5340000  43.8500000  16.2670000 -18.2090000  43.2530000  15.6510000
 -16.6570000  44.1440000  15.6890000 -18.0450000  44.7360000  16.6490000
 -19.5330000  39.2970000  19.7840000 -17.3660000  38.1670000  19.0170000
 -17.1950000  38.7890000  15.1630000 -15.9190000  38.4420000  14.9030000
 -15.4740000  37.3130000  15.0350000 -15.0800000  39.6400000  14.5030000
 -15.7320000  40.4620000  14.2010000 -14.5400000  39.9720000  15.3920000
 -14.0640000  39.3520000  13.3780000 -13.2980000  40.1300000  13.3970000
 -13.5570000  38.4020000  13.5630000 -14.7060000  39.3430000  11.9790000
 -15.4900000  38.5840000  11.9520000 -15.1760000  40.3110000  11.7940000
 -13.6760000  39.0570000  10.8700000 -12.8430000  39.7570000  10.9670000
 -13.2660000  38.0550000  11.0100000 -14.2530000  39.1850000   9.4450000
 -14.5130000  40.2300000   9.2630000 -13.4720000  38.9280000   8.7270000
 -15.5000000  38.3190000   9.1660000 -16.3390000  38.7080000   9.7470000
 -15.7710000  38.4340000   8.1140000 -15.3370000  36.8170000   9.4780000
 -15.1950000  36.6820000  10.5520000 -16.2660000  36.3050000   9.2190000
 -14.1610000  36.2130000   8.7380000 -13.1830000  36.5310000   9.0940000
 -14.2320000  35.3690000   7.7160000 -13.3100000  35.0130000   7.2630000
 -15.4980000  34.8080000   7.1000000 -15.2190000  33.9870000   6.4360000
 -16.1340000  34.3800000   7.8780000 -16.3020000  35.8400000   6.2800000
 -17.1030000  35.3190000   5.7510000 -16.7790000  36.5490000   6.9590000
 -15.4430000  36.6180000   5.2670000 -14.6760000  37.1710000   5.8130000
 -14.9370000  35.9170000   4.6000000 -16.2730000  37.6080000   4.4320000
 -17.0040000  37.0530000   3.8410000 -16.8320000  38.2670000   5.1010000
 -15.4110000  38.4670000   3.4870000 -14.8560000  37.8190000   2.8060000
 -16.0770000  39.0820000   2.8790000 -14.4200000  39.3810000   4.2310000
 -14.9330000  39.8630000   5.0660000 -13.6090000  38.7830000   4.6510000
 -13.8270000  40.4600000   3.3080000 -13.2530000  39.9850000   2.5090000
 -14.6380000  41.0220000   2.8400000 -12.9250000  41.4380000   4.0750000
 -12.5800000  42.2310000   3.4080000 -12.0540000  40.9200000   4.4830000
 -13.4730000  41.9000000   4.8990000  45.1590000   7.8140000   1.7490000
  46.1120000   7.8230000   2.2810000  45.3580000   7.8820000   0.6770000
  44.6630000   6.8630000   1.9510000  44.2860000   8.9930000   2.2070000
  44.8570000   9.9180000   2.1010000  44.0610000   8.8820000   3.2690000
  42.9760000   9.1340000   1.4060000  43.2200000   9.3980000   0.3750000
  42.4050000   9.9690000   1.8180000  42.0730000   7.8850000   1.3850000
  42.5480000   7.1130000   0.7770000  41.1370000   8.1440000   0.8860000
  41.7430000   7.2950000   2.7690000  42.6530000   6.8980000   3.2240000
  41.0700000   6.4490000   2.6220000  41.0920000   8.2930000   3.7470000
  40.2430000   8.7820000   3.2650000  41.8090000   9.0700000   4.0200000
  40.6110000   7.5650000   5.0130000  41.4470000   7.0290000   5.4670000
  39.8800000   6.8070000   4.7220000  39.9560000   8.4790000   6.0620000
  39.4660000   7.8300000   6.7920000  39.1730000   9.0750000   5.5900000
  40.9200000   9.4100000   6.8260000  40.3410000   9.9390000   7.5870000
  41.3290000  10.1650000   6.1520000  42.0750000   8.6520000   7.5090000
  42.8500000   8.4330000   6.7710000  41.7050000   7.6960000   7.8850000
  42.6890000   9.4240000   8.6920000  41.9200000   9.5570000   9.4560000
  43.0080000  10.4170000   8.3700000  43.8880000   8.6660000   9.2940000
  44.7580000   8.7890000   8.6450000  43.6550000   7.6000000   9.3250000
  44.2300000   9.1290000  10.7220000  43.3600000   8.9530000  11.3570000
  44.4320000  10.2020000  10.7300000  45.4420000   8.3710000  11.2960000
  46.3630000   8.8060000  10.9020000  45.4030000   7.3360000  10.9510000
  45.4660000   8.3810000  12.8390000  44.5230000   7.9850000  13.2210000
  45.5580000   9.4060000  13.2070000  46.6060000   7.5610000  13.4010000
  47.7750000   7.7380000  13.1090000  46.1950000   6.6240000  14.2800000
  47.2150000   5.9870000  15.1050000  47.5990000   6.7340000  15.8040000
  48.0370000   5.6330000  14.4770000  46.6360000   4.7830000  15.8890000
  45.6250000   5.0460000  16.2110000  47.5400000   4.4450000  17.1080000
  48.4450000   5.0570000  17.1060000  47.8470000   3.3970000  17.0480000
  46.8360000   4.6300000  18.3700000  46.4590000   6.0920000  18.9610000
  45.0780000   6.4410000  18.2180000  43.8960000   5.6490000  18.4540000
  43.9510000   5.1570000  19.4280000  43.8350000   4.8730000  17.6870000
  42.6450000   6.5570000  18.3880000  41.7580000   5.9260000  18.4600000
  42.6240000   7.0670000  17.4230000  42.4790000   7.6280000  19.4410000
  42.6380000   7.0710000  20.8170000  41.9320000   6.2490000  20.9480000
  42.4370000   7.8640000  21.5390000  43.6640000   6.7160000  20.9260000
  43.4550000   8.7420000  19.2540000  43.3300000   9.1530000  18.2520000
  44.4620000   8.3360000  19.3700000  43.2660000   9.5060000  20.0100000
  41.1030000   8.2000000  19.3320000  40.9790000   8.6240000  18.3340000
  40.9880000   8.9760000  20.0900000  40.3770000   7.4030000  19.4970000
  46.1940000   5.9610000  20.4190000  47.4850000   7.0690000  18.5080000
  46.5790000   3.6210000  15.0170000  45.7040000   2.6350000  15.3110000
  44.9140000   2.6630000  16.2380000  45.8640000   1.4520000  14.3820000
  46.4730000   1.7470000  13.5250000  46.4160000   0.6730000  14.9120000
  44.5120000   0.8930000  13.8870000  43.9020000   0.5960000  14.7420000
  43.9710000   1.6770000  13.3530000  44.7180000  -0.3270000  12.9670000
  45.3720000  -0.0520000  12.1360000  45.2330000  -1.0990000  13.5420000
  43.4140000  -0.9380000  12.4190000  43.6520000  -1.8830000  11.9270000
  42.7600000  -1.1760000  13.2600000  42.6400000  -0.0540000  11.4240000
  41.6810000  -0.5380000  11.2230000  42.4170000   0.9120000  11.8810000
  43.3570000   0.1540000  10.0760000  44.2990000   0.6830000  10.2390000
  43.6010000  -0.8180000   9.6420000  42.4820000   0.9470000   9.0850000
  41.5590000   0.3880000   8.9230000  42.2010000   1.9040000   9.5320000
  43.1740000   1.1330000   7.7480000  43.4730000   0.2090000   7.2600000
  43.3700000   2.2880000   7.1170000  43.8460000   2.2760000   6.1400000
  43.0620000   3.6650000   7.6690000  42.0330000   3.9360000   7.4220000
  43.1350000   3.6640000   8.7580000  43.9920000   4.7670000   7.1220000
  43.9050000   5.6220000   7.7960000  45.0340000   4.4420000   7.1640000
  43.6140000   5.2570000   5.7050000  42.5420000   5.1100000   5.5540000
  43.7880000   6.3330000   5.6520000  44.3650000   4.5940000   4.5350000
  44.3270000   3.5070000   4.6330000  43.8420000   4.8480000   3.6100000
  45.8270000   5.0640000   4.4100000  45.8490000   6.1540000   4.3430000
  46.3850000   4.7840000   5.3060000  46.5130000   4.4700000   3.1660000
  46.4700000   3.3790000   3.2110000  45.9690000   4.7820000   2.2730000
  47.9810000   4.9130000   3.0420000  48.0260000   6.0030000   2.9930000
  48.5280000   4.6000000   3.9340000  48.6670000   4.3240000   1.7980000
  49.6960000   4.6820000   1.7280000  48.1350000   4.6180000   0.8910000
  48.6850000   3.2330000   1.8550000 -23.9880000 -24.6960000   3.1740000
 -23.2620000 -25.0080000   2.4200000 -24.6420000 -25.5420000   3.3950000
 -23.4490000 -24.4300000   4.0850000 -24.8100000 -23.5010000   2.6630000
 -25.3680000 -23.8080000   1.7760000 -24.1360000 -22.6940000   2.3680000
 -25.7860000 -22.9880000   3.7360000 -25.2160000 -22.5970000   4.5810000
 -26.3820000 -23.8240000   4.1080000 -26.7340000 -21.8930000   3.2110000
 -27.2750000 -22.2630000   2.3370000 -26.1520000 -21.0270000   2.8890000
 -27.7390000 -21.4700000   4.2960000 -27.1830000 -21.1260000   5.1700000
 -28.3160000 -22.3440000   4.6060000 -28.7110000 -20.3690000   3.8240000
 -29.2560000 -20.7200000   2.9460000 -28.1470000 -19.4860000   3.5150000
 -29.7240000 -19.9750000   4.9160000 -30.1890000 -20.8770000   5.3170000
 -30.5150000 -19.3710000   4.4660000 -29.0720000 -19.1710000   6.0560000
 -28.7020000 -18.2270000   5.6510000 -28.2110000 -19.7220000   6.4420000
 -30.0340000 -18.8820000   7.2230000 -30.2900000 -19.8190000   7.7230000
 -30.9640000 -18.4650000   6.8300000 -29.4440000 -17.8890000   8.2460000
 -30.1600000 -17.7440000   9.0580000 -29.3280000 -16.9210000   7.7550000
 -28.0720000 -18.2940000   8.8290000 -27.7140000 -17.4820000   9.4640000
 -27.3520000 -18.3880000   8.0130000 -28.0580000 -19.5970000   9.6520000
 -27.0210000 -19.8480000   9.8840000 -28.4650000 -20.4220000   9.0630000
 -28.8380000 -19.4560000  10.9710000 -29.8920000 -19.2720000  10.7520000
 -28.4600000 -18.5880000  11.5150000 -28.7230000 -20.6960000  11.8740000
 -27.6720000 -20.9180000  12.0690000 -29.1560000 -21.5570000  11.3600000
 -29.4540000 -20.4560000  13.2090000 -30.4770000 -20.1300000  13.0110000
 -28.9600000 -19.6430000  13.7450000 -29.4870000 -21.6740000  14.1080000
 -29.3700000 -22.8220000  13.7190000 -29.6540000 -21.3200000  15.3990000
 -29.4560000 -22.3240000  16.4430000 -29.8000000 -23.3080000  16.1150000
 -30.0520000 -22.0340000  17.3120000 -27.9630000 -22.3700000  16.8720000
 -27.8400000 -23.0870000  17.6880000 -27.4700000 -20.9740000  17.3440000
 -28.2370000 -20.2130000  17.1790000 -26.5950000 -20.6950000  16.7510000
 -27.0740000 -20.9710000  18.7450000 -28.1420000 -20.8710000  19.9580000
 -28.6080000 -22.3940000  20.1460000 -27.7020000 -23.3700000  20.6950000
 -27.3080000 -23.0200000  21.6520000 -26.8660000 -23.4980000  20.0030000
 -28.4420000 -24.7160000  20.8700000 -27.7140000 -25.4830000  21.1390000
 -28.9020000 -24.9960000  19.9220000 -29.5370000 -24.8030000  21.9050000
 -30.7230000 -23.9860000  21.5230000 -30.4180000 -22.9390000  21.4780000
 -31.5100000 -24.1300000  22.2640000 -31.0530000 -24.3190000  20.5380000
 -29.9790000 -26.2240000  22.0060000 -29.1280000 -26.8350000  22.3130000
 -30.3410000 -26.5370000  21.0260000 -30.7790000 -26.2890000  22.7450000
 -29.0510000 -24.3720000  23.2510000 -28.1780000 -24.9700000  23.5160000
 -29.8510000 -24.5280000  23.9760000 -28.7890000 -23.3130000  23.2040000
 -27.4140000 -20.4370000  21.1810000 -29.3190000 -20.0770000  19.5100000
 -27.1130000 -22.7610000  15.7530000 -27.0140000 -24.0640000  15.4180000
 -27.5540000 -24.9690000  16.0300000 -26.1210000 -24.2780000  14.2150000
 -25.8350000 -23.3010000  13.8220000 -25.2070000 -24.7810000  14.5360000
 -26.8250000 -25.1030000  13.1140000 -27.0710000 -26.0930000  13.5030000
 -27.7700000 -24.6190000  12.8570000 -26.0030000 -25.2680000  11.8200000
 -25.1450000 -25.9160000  12.0100000 -26.6280000 -25.7720000  11.0800000
 -25.5050000 -23.9280000  11.2420000 -26.2930000 -23.1770000  11.3290000
 -24.6570000 -23.5820000  11.8350000 -25.0870000 -24.0250000   9.7630000
 -24.4620000 -24.9080000   9.6120000 -25.9810000 -24.1460000   9.1480000
 -24.3080000 -22.7740000   9.3140000 -24.8380000 -21.8780000   9.6420000
 -23.3330000 -22.7740000   9.8050000 -24.1140000 -22.7040000   7.7880000
 -23.7870000 -23.6780000   7.4170000 -25.0710000 -22.4850000   7.3100000
 -23.0770000 -21.6650000   7.4180000 -22.0700000 -22.0540000   7.2870000
 -23.2920000 -20.3680000   7.2390000 -22.4580000 -19.7260000   6.9670000
 -24.6210000 -19.6630000   7.4020000 -25.4080000 -20.1850000   6.8550000
 -24.8990000 -19.6620000   8.4580000 -24.5330000 -18.1960000   6.9320000
 -25.4620000 -17.6840000   7.1880000 -23.7370000 -17.6970000   7.4890000
 -24.2760000 -18.0070000   5.4250000 -24.1380000 -16.9390000   5.2420000
 -23.3500000 -18.5100000   5.1400000 -25.4410000 -18.5060000   4.5520000
 -25.5420000 -19.5870000   4.6690000 -26.3670000 -18.0520000   4.9090000
 -25.2840000 -18.1750000   3.0560000 -26.2060000 -18.4550000   2.5420000
 -25.1630000 -17.0960000   2.9360000 -24.1020000 -18.8940000   2.3790000
 -23.1620000 -18.5340000   2.8000000 -24.1650000 -19.9650000   2.5820000
 -24.0970000 -18.6690000   0.8550000 -25.0550000 -18.9840000   0.4350000
 -23.9850000 -17.6030000   0.6460000 -22.9680000 -19.4460000   0.1620000
 -22.9580000 -19.2240000  -0.9070000 -23.1070000 -20.5220000   0.2910000
 -22.0010000 -19.1670000   0.5840000  23.7400000   2.0160000  -3.6270000
  23.0610000   2.7290000  -4.0990000  23.2110000   1.5350000  -2.8010000
  23.9990000   1.2540000  -4.3660000  25.0010000   2.7370000  -3.1210000
  24.7110000   3.5070000  -2.4020000  25.4690000   3.2520000  -3.9630000
  26.0430000   1.7970000  -2.4800000  26.9250000   2.3840000  -2.2140000
  26.3670000   1.0680000  -3.2250000  25.5600000   1.0400000  -1.2240000
  26.3570000   0.3660000  -0.9040000  24.6990000   0.4150000  -1.4710000
  25.1980000   1.9770000  -0.0530000  24.3030000   2.5490000  -0.3070000
  26.0150000   2.6870000   0.0910000  24.9500000   1.2090000   1.2590000
  25.8500000   0.6490000   1.5210000  24.1580000   0.4750000   1.0980000
  24.5570000   2.1110000   2.4480000  24.4760000   1.4870000   3.3410000
  23.5680000   2.5340000   2.2590000  25.5460000   3.2640000   2.7200000
  25.4700000   4.0030000   1.9200000  26.5660000   2.8740000   2.7070000
  25.3190000   3.9670000   4.0730000  26.0300000   4.7910000   4.1650000
  25.5470000   3.2530000   4.8670000  23.8900000   4.5060000   4.2880000
  23.1880000   3.6700000   4.3080000  23.6100000   5.1450000   3.4470000
  23.7360000   5.3100000   5.5960000  22.6780000   5.5360000   5.7400000
  24.2590000   6.2630000   5.4990000  24.2740000   4.5700000   6.8360000
  25.3640000   4.5340000   6.7910000  23.9110000   3.5400000   6.8280000
  23.8480000   5.2530000   8.1480000  22.7640000   5.1730000   8.2610000
  24.0850000   6.3170000   8.0900000  24.5390000   4.6690000   9.3950000
  24.2040000   5.2340000  10.2680000  25.6180000   4.8110000   9.3100000
  24.2340000   3.1770000   9.6180000  24.7040000   2.5660000   8.8440000
  23.1550000   3.0230000   9.5530000  24.6970000   2.6910000  10.9700000
  25.6590000   3.1300000  11.5780000  23.8970000   1.7130000  11.4390000
  24.1020000   1.2370000  12.8000000  25.1630000   1.0370000  12.9680000
  23.5500000   0.3000000  12.9110000  23.5670000   2.2630000  13.8380000
  24.1140000   3.2050000  13.7430000  23.7630000   1.7890000  15.2960000
  23.0420000   2.3010000  15.9380000  24.7690000   2.0510000  15.6350000
  23.5800000   0.3530000  15.4120000  23.5290000  -0.3650000  16.8530000
  22.1890000   0.2500000  17.4820000  20.8980000  -0.1770000  17.0170000
  20.6320000  -1.1260000  17.4880000  20.9390000  -0.3220000  15.9340000
  19.8610000   0.9280000  17.3290000  18.8900000   0.6010000  16.9550000
  20.1380000   1.8400000  16.7970000  19.6410000   1.3260000  18.7710000
  20.7840000   2.1310000  19.2990000  21.6830000   1.5130000  19.2650000
  20.5680000   2.4230000  20.3280000  20.9140000   3.0130000  18.6700000
  18.4080000   2.1670000  18.8540000  17.5580000   1.5810000  18.5010000
  18.5440000   3.0500000  18.2280000  18.2560000   2.4630000  19.8930000
  19.4510000   0.1270000  19.6410000  18.6270000  -0.4640000  19.2380000
  19.2270000   0.4620000  20.6550000  20.3770000  -0.4480000  19.6320000
  23.3420000  -1.8230000  16.6390000  24.6890000   0.1020000  17.6590000
  22.1440000   2.4780000  13.6050000  21.7760000   3.4870000  12.7890000
  22.5310000   4.3540000  12.3840000  20.3200000   3.4350000  12.4040000
  19.7220000   3.1200000  13.2610000  20.0070000   4.4450000  12.1290000
  20.0930000   2.4750000  11.2170000  20.9050000   2.5950000  10.4960000
  20.1240000   1.4450000  11.5770000  18.7490000   2.7510000  10.5160000
  17.9620000   2.7660000  11.2740000  18.7810000   3.7440000  10.0620000
  18.3470000   1.7180000   9.4440000  18.0350000   0.8030000   9.9530000
  17.4700000   2.0890000   8.9100000  19.4390000   1.3500000   8.4210000
  20.2560000   0.8460000   8.9410000  19.0190000   0.6250000   7.7210000
  19.9950000   2.5480000   7.6230000  19.1680000   3.0830000   7.1520000
  20.4900000   3.2480000   8.3000000  20.9950000   2.1190000   6.5310000
  20.4780000   1.5050000   5.7900000  21.3400000   3.0150000   6.0120000
  22.1950000   1.3960000   7.1170000  22.8040000   1.9960000   7.7880000
  22.5640000   0.1460000   6.8540000  23.4590000  -0.2570000   7.3220000
  21.8050000  -0.8180000   5.9700000  22.0220000  -1.8470000   6.2650000
  20.7290000  -0.6760000   6.0990000  22.1780000  -0.6170000   4.4930000
  21.9930000   0.4280000   4.2380000  23.2440000  -0.8050000   4.3500000
  21.3600000  -1.5370000   3.5660000  21.6440000  -2.5740000   3.7530000
  20.3010000  -1.4490000   3.8160000  21.5520000  -1.2280000   2.0680000
  22.5850000  -1.4430000   1.7900000  20.9190000  -1.9030000   1.4870000
  21.2250000   0.2280000   1.6710000  21.9600000   0.8960000   2.1240000
  21.3420000   0.3240000   0.5900000  19.8050000   0.6790000   2.0730000
  19.0820000  -0.0270000   1.6600000  19.6990000   0.6520000   3.1590000
  19.4430000   2.0920000   1.5800000  19.5230000   2.1340000   0.4910000
  18.4010000   2.2960000   1.8340000  20.3250000   3.1910000   2.1910000
  19.9880000   4.1680000   1.8370000  21.3690000   3.0650000   1.8960000
  20.2640000   3.1740000   3.2810000 -32.2870000 -35.1460000   2.8190000
 -33.0830000 -35.8340000   2.5280000 -31.5040000 -35.1930000   2.0590000
 -32.6890000 -34.1310000   2.8390000 -31.7230000 -35.5370000   4.1960000
 -31.3990000 -36.5790000   4.1610000 -32.5150000 -35.4680000   4.9450000
 -30.5370000 -34.6450000   4.6060000 -30.9050000 -33.6510000   4.8690000
 -29.8760000 -34.5220000   3.7450000 -29.6980000 -35.2050000   5.7710000
 -28.9250000 -34.4750000   6.0210000 -29.1830000 -36.1050000   5.4270000
 -30.4960000 -35.5470000   7.0450000 -31.2390000 -36.3140000   6.8170000
 -31.0270000 -34.6610000   7.3980000 -29.5520000 -36.0680000   8.1470000
 -28.8810000 -35.2640000   8.4580000 -28.9250000 -36.8580000   7.7300000
 -30.2690000 -36.6360000   9.3850000 -29.5140000 -37.1050000  10.0190000
 -30.9600000 -37.4230000   9.0750000 -31.0430000 -35.5830000  10.2010000
 -31.8890000 -35.2270000   9.6090000 -30.4010000 -34.7230000  10.3990000
 -31.5690000 -36.1420000  11.5380000 -32.0860000 -37.0870000  11.3590000
 -32.3020000 -35.4390000  11.9380000 -30.4570000 -36.3510000  12.5860000
 -30.0100000 -35.3830000  12.8230000 -29.6640000 -36.9750000  12.1700000
 -30.9430000 -37.0100000  13.8910000 -30.1050000 -37.0310000  14.5900000
 -31.2180000 -38.0460000  13.6840000 -32.1380000 -36.2890000  14.5470000
 -33.0460000 -36.4960000  13.9760000 -31.9740000 -35.2110000  14.5070000
 -32.3550000 -36.6870000  16.0220000 -33.2700000 -36.2130000  16.3820000
 -31.5340000 -36.2750000  16.6140000 -32.4300000 -38.2030000  16.2890000
 -32.5020000 -38.3530000  17.3680000 -31.5010000 -38.6810000  15.9700000
 -33.6230000 -38.9010000  15.6050000 -33.5940000 -38.7350000  14.5260000
 -34.5620000 -38.4930000  15.9850000 -33.5900000 -40.3860000  15.8700000
 -33.4500000 -41.2230000  14.9980000 -33.7200000 -40.6630000  17.1860000
 -33.4790000 -42.0270000  17.6450000 -33.7940000 -42.7580000  16.8950000
 -34.0820000 -42.1890000  18.5420000 -31.9850000 -42.2290000  18.0180000
 -31.8350000 -43.2470000  18.3850000 -31.5480000 -41.2620000  19.1360000
 -32.1350000 -41.4270000  20.0430000 -31.7030000 -40.2370000  18.7900000
 -30.1390000 -41.4460000  19.4320000 -29.2980000 -40.2790000  20.1520000
 -29.2350000 -39.1430000  19.0180000 -28.3680000 -39.2850000  17.8790000
 -28.6730000 -40.1740000  17.3210000 -27.3340000 -39.4100000  18.2100000
 -28.5100000 -38.0290000  16.9840000 -29.5670000 -37.8810000  16.7570000
 -27.9780000 -38.1980000  16.0470000 -27.9980000 -36.7060000  17.5110000
 -28.7130000 -36.2810000  18.7520000 -29.7830000 -36.2400000  18.5430000
 -28.3410000 -35.3020000  19.0590000 -28.5170000 -37.0220000  19.5280000
 -26.5330000 -36.7720000  17.7900000 -26.0110000 -37.0490000  16.8730000
 -26.3530000 -37.5180000  18.5650000 -26.1950000 -35.7920000  18.1330000
 -28.2250000 -35.6530000  16.4750000 -27.6900000 -35.9390000  15.5680000
 -27.8410000 -34.7030000  16.8500000 -29.2940000 -35.5750000  16.2760000
 -30.0940000 -39.7550000  21.2970000 -27.9220000 -40.7800000  20.4090000
 -31.1280000 -41.9780000  16.8700000 -30.8470000 -42.9960000  16.0370000
 -31.3210000 -44.1150000  16.1520000 -29.8660000 -42.5620000  14.9700000
 -30.1420000 -41.5660000  14.6180000 -28.8860000 -42.4620000  15.4420000
 -29.7610000 -43.5420000  13.7820000 -28.9410000 -43.2230000  13.1360000
 -29.4970000 -44.5340000  14.1560000 -31.0430000 -43.6510000  12.9350000
 -30.8850000 -44.4110000  12.1670000 -31.8710000 -43.9950000  13.5580000
 -31.4360000 -42.3290000  12.2500000 -31.6080000 -41.5500000  12.9960000
 -30.6060000 -42.0040000  11.6190000 -32.7100000 -42.4980000  11.4040000
 -32.5600000 -43.3140000  10.6940000 -33.5330000 -42.7990000  12.0550000
 -33.1290000 -41.2240000  10.6370000 -33.9820000 -41.4770000  10.0040000
 -33.4770000 -40.4760000  11.3530000 -32.0280000 -40.5890000   9.7590000
 -32.4850000 -39.8240000   9.1280000 -31.3010000 -40.0920000  10.4040000
 -31.3290000 -41.6170000   8.8960000 -31.7140000 -42.6310000   8.9680000
 -30.2690000 -41.3890000   8.1320000 -29.8170000 -42.2190000   7.5970000
 -29.6310000 -40.0450000   7.8600000 -29.7480000 -39.3810000   8.7180000
 -28.5580000 -40.1850000   7.7150000 -30.2290000 -39.3750000   6.6040000
 -31.2210000 -38.9900000   6.8460000 -29.6060000 -38.5190000   6.3360000
 -30.3480000 -40.3210000   5.3900000 -29.3870000 -40.8030000   5.1960000
 -31.0630000 -41.1130000   5.6270000 -30.8330000 -39.6170000   4.1120000
 -31.1810000 -40.3770000   3.4090000 -31.6900000 -38.9820000   4.3470000
 -29.7410000 -38.7700000   3.4340000 -29.4800000 -37.9270000   4.0770000
 -28.8420000 -39.3760000   3.3070000 -30.2080000 -38.2510000   2.0610000
 -30.3460000 -39.0990000   1.3870000 -31.1810000 -37.7680000   2.1690000
 -29.2360000 -37.2460000   1.4220000 -29.6460000 -36.9260000   0.4610000
 -29.1740000 -36.3600000   2.0570000 -27.8240000 -37.8140000   1.2060000
 -27.2040000 -37.0910000   0.6720000 -27.8630000 -38.7350000   0.6200000
 -27.3490000 -38.0250000   2.1660000  19.0940000  12.6560000  -1.1210000
  18.1660000  12.3150000  -1.5840000  19.7840000  11.8100000  -1.0870000
  19.5270000  13.4380000  -1.7490000  18.8210000  13.1990000   0.2910000
  18.3810000  12.4070000   0.9000000  18.0800000  13.9990000   0.2230000
  20.0750000  13.7580000   0.9920000  19.7890000  14.1420000   1.9740000
  20.4450000  14.6110000   0.4200000  21.2190000  12.7370000   1.1580000
  22.0410000  13.2180000   1.6940000  21.6070000  12.4660000   0.1740000
  20.8320000  11.4500000   1.9110000  21.7070000  10.7970000   1.9340000
  20.0570000  10.9130000   1.3590000  20.3600000  11.6950000   3.3560000
  19.4120000  12.2370000   3.3530000  21.0950000  12.3160000   3.8720000
  20.1910000  10.3700000   4.1220000  21.1220000   9.8030000   4.0540000
  19.4110000   9.7750000   3.6430000  19.8380000  10.5730000   5.6070000
  18.8290000  10.9820000   5.6880000  20.5260000  11.2970000   6.0490000
  19.9340000   9.2520000   6.3930000  20.9580000   8.8770000   6.3330000
  19.2850000   8.5060000   5.9300000  19.5370000   9.4100000   7.8720000
  18.4760000   9.6590000   7.9310000  20.0960000  10.2380000   8.3140000
  19.8120000   8.1230000   8.6740000  20.8910000   7.9780000   8.7630000
  19.4270000   7.2660000   8.1180000  19.1670000   8.1170000  10.0750000
  19.3960000   7.1640000  10.5550000  18.0810000   8.1550000   9.9590000
  19.6010000   9.2600000  11.0140000  19.1030000   9.1130000  11.9750000
  19.2530000  10.2170000  10.6210000  21.1290000   9.3140000  11.2170000
  21.5740000   9.7260000  10.3090000  21.5230000   8.3030000  11.3370000
  21.5830000  10.1770000  12.4140000  21.0660000  11.1390000  12.4100000
  22.6490000  10.3880000  12.3070000  21.3800000   9.5090000  13.7570000
  20.6570000   8.5490000  13.9540000  22.1140000  10.1060000  14.7200000
  21.9810000   9.6650000  16.1060000  22.9570000   9.7830000  16.5830000
  21.7090000   8.6070000  16.1590000  20.9570000  10.5310000  16.8850000
  21.2800000  11.5750000  16.8610000  20.9030000  10.0800000  18.3640000
  21.9230000   9.9040000  18.7130000  20.3480000   9.1420000  18.4540000
  20.3300000  11.1080000  19.2220000  18.7610000  11.1500000  19.6170000
  18.0790000  11.9510000  18.3960000  18.1670000  13.3850000  18.2970000
  18.9240000  13.6390000  17.5500000  18.4710000  13.8270000  19.2490000
  16.7870000  13.9450000  17.8740000  16.5020000  13.5120000  16.9140000
  16.8800000  15.0250000  17.7490000  15.6120000  13.7340000  18.8040000
  15.9310000  14.1390000  20.2020000  16.7380000  13.5030000  20.5700000
  15.0390000  14.0060000  20.8160000  16.2360000  15.1870000  20.2070000
  14.4710000  14.5700000  18.3290000  14.2330000  14.2870000  17.3020000
  14.7550000  15.6220000  18.3840000  13.6190000  14.3760000  18.9820000
  15.1530000  12.3130000  18.8090000  14.8690000  12.0320000  17.7940000
  14.3060000  12.2270000  19.4910000  15.9770000  11.6890000  19.1580000
  18.2150000   9.7660000  19.6310000  18.6310000  11.9630000  20.8560000
  19.6390000  10.3590000  16.2920000  19.1420000  11.3300000  15.5020000
  19.6890000  12.4000000  15.3030000  17.8500000  10.9080000  14.8380000
  17.9610000   9.8710000  14.5140000  17.0440000  10.9360000  15.5730000
  17.5010000  11.7900000  13.6190000  17.1870000  12.7780000  13.9610000
  18.3930000  11.9220000  13.0030000  16.4000000  11.1670000  12.7440000
  16.7410000  10.1840000  12.4130000  15.4980000  11.0210000  13.3410000
  16.0590000  12.0420000  11.5220000  15.5650000  12.9510000  11.8710000
  16.9770000  12.3480000  11.0150000  15.1410000  11.3260000  10.5100000
  14.3020000  10.8740000  11.0420000  14.7300000  12.0710000   9.8250000
  15.8830000  10.2550000   9.6850000  16.6450000  10.7450000   9.0750000
  16.4020000   9.5720000  10.3600000  14.9730000   9.4120000   8.7720000
  15.5920000   8.7060000   8.2130000  14.3030000   8.8120000   9.3910000
  14.1450000  10.2440000   7.8180000  13.1660000  10.5350000   8.1900000
  14.4880000  10.5600000   6.5750000  13.7890000  11.1230000   5.9630000
  15.8280000  10.2740000   5.9230000  16.2390000  11.2120000   5.5440000
  16.5490000   9.8920000   6.6480000  15.7210000   9.2760000   4.7530000
  16.7080000   9.1830000   4.2950000  15.4480000   8.2930000   5.1420000
  14.7020000   9.6980000   3.6780000  13.6910000   9.5740000   4.0730000
  14.8370000  10.7590000   3.4580000  14.8320000   8.9150000   2.3590000
  14.1320000   9.3370000   1.6350000  15.8360000   9.0780000   1.9610000
  14.5720000   7.4010000   2.4830000  15.2860000   6.9620000   3.1830000
  13.5700000   7.2360000   2.8840000  14.7020000   6.7000000   1.1160000
  13.9950000   7.1520000   0.4170000  15.7050000   6.8720000   0.7210000
  14.4400000   5.1830000   1.1680000  15.1260000   4.7090000   1.8720000
  13.4270000   4.9970000   1.5310000  14.6200000   4.5330000  -0.2140000
  14.4190000   3.4610000  -0.1630000  15.6430000   4.6750000  -0.5710000
  13.9360000   4.9750000  -0.9410000  16.4870000 -24.1260000   0.0340000
  15.9710000 -23.6630000  -0.8100000  15.9710000 -25.0530000   0.2900000
  17.5060000 -24.3670000  -0.2760000  16.4920000 -23.1770000   1.2410000
  15.4680000 -23.0230000   1.5850000  16.8800000 -22.2070000   0.9220000
  17.3570000 -23.7070000   2.4000000  18.3840000 -23.8160000   2.0440000
  17.0060000 -24.6910000   2.7160000  17.3310000 -22.7380000   3.5940000
  16.3620000 -22.7980000   4.0930000  17.4300000 -21.7200000   3.2090000
  18.4630000 -22.9520000   4.6160000  18.5250000 -22.0490000   5.2280000
  19.4140000 -23.0380000   4.0860000  18.2950000 -24.1560000   5.5660000
  18.2800000 -25.0910000   5.0010000  17.3470000 -24.0670000   6.1010000
  19.4600000 -24.1640000   6.5740000  19.5310000 -23.1660000   7.0120000
  20.3920000 -24.3370000   6.0320000  19.3550000 -25.1800000   7.7310000
  19.3710000 -26.2010000   7.3440000  18.4170000 -25.0310000   8.2700000
  20.5450000 -24.9450000   8.6800000  20.5570000 -23.8790000   8.9180000
  21.4750000 -25.1480000   8.1450000  20.5560000 -25.7110000  10.0180000
  20.4780000 -26.7880000   9.8540000  19.6890000 -25.4050000  10.6070000
  21.8610000 -25.3720000  10.7770000  22.1170000 -24.3320000  10.5640000
  22.6830000 -25.9790000  10.3900000  21.7860000 -25.5230000  12.3080000
  21.8860000 -26.5740000  12.5860000  20.8060000 -25.1860000  12.6530000
  22.8770000 -24.6780000  13.0050000  23.8640000 -25.0770000  12.7640000
  22.8400000 -23.6590000  12.6140000  22.6940000 -24.6360000  14.5340000
  22.9990000 -25.6020000  14.9420000  21.6330000 -24.5180000  14.7650000
  23.4770000 -23.5170000  15.2520000  24.5250000 -23.5410000  14.9450000
  23.4550000 -23.7030000  16.3280000  22.9210000 -22.1280000  15.0170000
  23.4320000 -21.3450000  14.2350000  21.8470000 -21.8240000  15.7850000
  21.4230000 -20.4220000  15.8370000  21.3570000 -20.0260000  14.8210000
  22.1860000 -19.8540000  16.3760000  20.0430000 -20.1910000  16.5220000
  19.9960000 -19.1160000  16.7160000  19.8990000 -20.9330000  17.8830000
  19.8320000 -20.1680000  18.6610000  20.7840000 -21.5410000  18.0870000
  18.7150000 -21.7890000  17.9520000  17.8340000 -21.9470000  19.3020000
  16.6740000 -20.8460000  19.1070000  15.4960000 -21.1630000  18.3430000
  14.8620000 -21.8480000  18.9110000  15.8010000 -21.6630000  17.4200000
  14.7360000 -19.8650000  17.9820000  13.9050000 -20.1240000  17.3240000
  15.4070000 -19.1960000  17.4420000  14.1350000 -19.0410000  19.0960000
  15.1900000 -18.3600000  19.9030000  15.8060000 -19.1260000  20.3760000
  14.7070000 -17.7370000  20.6560000  15.8010000 -17.7530000  19.2330000
  13.2730000 -17.9840000  18.4890000  12.4790000 -18.4650000  17.9150000
  13.8900000 -17.3600000  17.8410000  12.8420000 -17.3830000  19.2910000
  13.2880000 -19.8720000  20.0020000  12.5160000 -20.3660000  19.4100000
  12.8300000 -19.2170000  20.7450000  13.9260000 -20.6090000  20.4920000
  17.2080000 -23.2990000  19.2920000  18.6480000 -21.5510000  20.4870000
  18.9630000 -20.5470000  15.6060000  17.8060000 -19.8590000  15.6860000
  17.6260000 -18.8670000  16.3720000  16.7300000 -20.4340000  14.7920000
  16.6950000 -21.5150000  14.9450000  15.7570000 -20.0290000  15.0770000
  17.0070000 -20.1380000  13.3060000  18.0090000 -20.4950000  13.0620000
  16.3090000 -20.7100000  12.6900000  16.9110000 -18.6500000  12.9240000
  15.8690000 -18.3900000  12.7250000  17.2420000 -18.0290000  13.7580000
  17.7910000 -18.3040000  11.7080000  17.6610000 -17.2470000  11.4700000
  18.8370000 -18.4320000  11.9930000  17.5460000 -19.1370000  10.4370000
  18.1960000 -18.7360000   9.6570000  17.8610000 -20.1680000  10.6070000
  16.0830000 -19.1470000   9.9500000  15.4810000 -19.7400000  10.6430000
  15.6750000 -18.1350000   9.9680000  15.9360000 -19.7410000   8.5350000
  16.3400000 -20.7560000   8.5430000  14.8720000 -19.8070000   8.2970000
  16.6590000 -18.9140000   7.4870000  17.3760000 -18.1930000   7.8710000
  16.4580000 -18.9800000   6.1750000  17.0190000 -18.3240000   5.5150000
  15.5100000 -19.9330000   5.4830000  16.0920000 -20.6970000   4.9640000
  14.8680000 -20.4480000   6.2010000  14.6390000 -19.2060000   4.4460000
  14.1360000 -18.3640000   4.9270000  15.2680000 -18.8060000   3.6490000
  13.5850000 -20.1580000   3.8550000  14.0790000 -20.9890000   3.3450000
  13.0050000 -20.5830000   4.6770000  12.6270000 -19.4550000   2.8780000
  12.3250000 -18.4900000   3.2910000  13.1410000 -19.2630000   1.9330000
  11.3700000 -20.3030000   2.6300000  11.6690000 -21.2810000   2.2470000
  10.8650000 -20.4670000   3.5850000  10.3850000 -19.6340000   1.6550000
  10.1520000 -18.6300000   2.0130000  10.8600000 -19.5260000   0.6770000
   9.0680000 -20.4170000   1.4990000   8.5250000 -20.4060000   2.4460000
   8.4430000 -19.9010000   0.7670000   9.2690000 -21.8750000   1.0500000
   8.3040000 -22.3440000   0.8480000   9.7720000 -22.4570000   1.8250000
   9.8710000 -21.9140000   0.1390000 -17.4140000 -35.6560000  -2.2370000
 -17.7630000 -36.0670000  -3.1870000 -17.4450000 -34.5660000  -2.3020000
 -18.1000000 -35.9760000  -1.4510000 -15.9820000 -36.1340000  -1.9460000
 -15.3400000 -35.8120000  -2.7690000 -15.9540000 -37.2250000  -1.9240000
 -15.4100000 -35.5700000  -0.6330000 -15.5640000 -34.4890000  -0.6180000
 -14.3320000 -35.7460000  -0.6100000 -16.0440000 -36.2170000   0.6110000
 -15.7960000 -37.2810000   0.6130000 -17.1320000 -36.1430000   0.5520000
 -15.5780000 -35.5960000   1.9380000 -14.4880000 -35.6390000   1.9940000
 -15.9700000 -36.2020000   2.7580000 -16.0590000 -34.1410000   2.1150000
 -17.1300000 -34.0930000   1.9060000 -15.5580000 -33.4950000   1.3920000
 -15.8190000 -33.5890000   3.5320000 -16.3650000 -34.2030000   4.2510000
 -16.2350000 -32.5810000   3.5890000 -14.3320000 -33.5400000   3.9290000
 -13.7810000 -32.9240000   3.2160000 -13.9080000 -34.5460000   3.8940000
 -14.1510000 -32.9760000   5.3470000 -14.7210000 -33.5940000   6.0450000
 -14.5630000 -31.9660000   5.3930000 -12.6770000 -32.9490000   5.7860000
 -12.1260000 -32.2170000   5.1910000 -12.2300000 -33.9280000   5.6000000
 -12.5480000 -32.6200000   7.2830000 -13.1440000 -33.3520000   7.8330000
 -12.9690000 -31.6340000   7.4890000 -11.0890000 -32.6650000   7.7710000
 -10.5090000 -31.8980000   7.2520000 -10.6590000 -33.6300000   7.4920000
 -10.9390000 -32.4620000   9.2930000 -11.2700000 -31.4560000   9.5590000
  -9.8810000 -32.5340000   9.5560000 -11.7400000 -33.4920000  10.1130000
 -11.5150000 -34.5020000   9.7640000 -12.8050000 -33.3240000   9.9370000
 -11.4730000 -33.4120000  11.6290000 -11.5390000 -32.3740000  11.9620000
 -10.4620000 -33.7620000  11.8510000 -12.4660000 -34.2270000  12.4280000
 -13.3400000 -34.9210000  11.9410000 -12.2800000 -34.0760000  13.7560000
 -13.2930000 -34.5900000  14.6730000 -12.7770000 -34.9760000  15.5560000
 -13.8530000 -35.4170000  14.2290000 -14.2550000 -33.4620000  15.1330000
 -13.7000000 -32.7710000  15.7720000 -15.4320000 -34.0660000  15.9370000
 -15.0690000 -34.8280000  16.6310000 -16.1210000 -34.5440000  15.2360000
 -16.1640000 -33.0450000  16.6740000 -15.6370000 -32.4710000  18.0890000
 -14.5210000 -31.3980000  17.6600000 -14.8750000 -30.0780000  17.2080000
 -15.7980000 -30.1270000  16.6250000 -14.0790000 -29.7080000  16.5570000
 -15.0460000 -29.1270000  18.4180000 -15.8690000 -29.4840000  19.0400000
 -15.3080000 -28.1360000  18.0430000 -13.8730000 -28.9230000  19.3480000
 -12.6270000 -28.5990000  18.5970000 -12.3660000 -29.4510000  17.9670000
 -11.8330000 -28.3890000  19.3150000 -12.8140000 -27.7130000  17.9890000
 -14.1780000 -27.7790000  20.2560000 -15.0890000 -28.0060000  20.8130000
 -14.3040000 -26.8820000  19.6490000 -13.3360000 -27.6460000  20.9360000
 -13.6280000 -30.1240000  20.2010000 -14.5480000 -30.3600000  20.7380000
 -12.8210000 -29.9000000  20.9000000 -13.3510000 -30.9560000  19.5510000
 -16.7680000 -31.7730000  18.7500000 -14.9540000 -33.5680000  18.8220000
 -14.8310000 -32.7720000  13.9860000 -14.3440000 -31.5710000  13.6180000
 -13.3940000 -31.0140000  14.1390000 -15.1070000 -30.9830000  12.4570000
 -16.1710000 -31.1850000  12.5970000 -14.9620000 -29.9000000  12.4530000
 -14.6290000 -31.5740000  11.1170000 -13.6140000 -31.2280000  10.9100000
 -14.5900000 -32.6610000  11.2120000 -15.5470000 -31.2510000   9.9230000
 -15.1520000 -31.7410000   9.0300000 -16.5240000 -31.7000000  10.1180000
 -15.7430000 -29.7520000   9.6250000 -16.5210000 -29.6560000   8.8640000
 -16.1300000 -29.2470000  10.5130000 -14.4640000 -29.0280000   9.1470000
 -14.2030000 -28.2660000   9.8840000 -13.6240000 -29.7240000   9.1050000
 -14.6380000 -28.3590000   7.7670000 -15.5590000 -27.7730000   7.7640000
 -13.8130000 -27.6630000   7.5990000 -14.6610000 -29.3820000   6.6140000
 -13.6660000 -29.8230000   6.5180000 -15.3530000 -30.1880000   6.8670000
 -15.1170000 -28.7490000   5.3160000 -16.1000000 -28.2890000   5.3670000
 -14.4520000 -28.7060000   4.1640000 -14.9120000 -28.2100000   3.3140000
 -13.0820000 -29.2830000   3.8850000 -12.3470000 -28.4760000   3.9260000
 -12.8040000 -30.0300000   4.6320000 -13.0120000 -29.9220000   2.4860000
 -13.7290000 -30.7440000   2.4310000 -13.3000000 -29.1830000   1.7360000
 -11.5930000 -30.4380000   2.1720000 -10.8960000 -29.5990000   2.2350000
 -11.2920000 -31.1600000   2.9350000 -11.4470000 -31.0830000   0.7800000
 -11.7730000 -30.3700000   0.0190000 -10.3870000 -31.2780000   0.6040000
 -12.2240000 -32.4080000   0.6250000 -11.9680000 -33.0610000   1.4620000
 -13.2980000 -32.2200000   0.6830000 -11.8920000 -33.1550000  -0.6840000
 -10.8160000 -33.3350000  -0.7180000 -12.3730000 -34.1360000  -0.6620000
 -12.3090000 -32.4260000  -1.9790000 -11.8860000 -31.4190000  -1.9920000
 -11.8840000 -32.9580000  -2.8320000 -13.8330000 -32.3420000  -2.1690000
 -14.0670000 -31.8020000  -3.0890000 -14.3050000 -31.8210000  -1.3330000
 -14.2650000 -33.3430000  -2.2400000 -30.2020000  36.7060000  -1.8640000
 -29.3250000  37.3460000  -1.9760000 -30.8670000  37.1540000  -1.1220000
 -30.7300000  36.6790000  -2.8190000 -29.7850000  35.2840000  -1.4420000
 -29.2240000  34.8250000  -2.2590000 -30.6740000  34.6700000  -1.2880000
 -28.9170000  35.2540000  -0.1690000 -27.9940000  35.8070000  -0.3600000
 -28.6350000  34.2190000   0.0350000 -29.6170000  35.8370000   1.0750000
 -30.5490000  35.2930000   1.2420000 -29.8780000  36.8830000   0.9030000
 -28.7580000  35.7430000   2.3500000 -28.4410000  34.7080000   2.4960000
 -29.3900000  36.0130000   3.1990000 -27.5150000  36.6550000   2.3360000
 -27.8350000  37.6940000   2.2340000 -26.8970000  36.4210000   1.4670000
 -26.6390000  36.5190000   3.5980000 -25.8110000  37.2270000   3.5230000
 -26.2080000  35.5160000   3.6310000 -27.4090000  36.7740000   4.9070000
 -28.1290000  35.9700000   5.0690000 -27.9760000  37.7030000   4.8160000
 -26.4830000  36.8630000   6.1320000 -25.7790000  37.6870000   5.9970000
 -25.9040000  35.9420000   6.2200000 -27.2910000  37.0880000   7.4220000
 -27.9970000  36.2650000   7.5490000 -27.8780000  38.0030000   7.3260000
 -26.3970000  37.1750000   8.6710000 -25.6400000  37.9510000   8.5360000
 -25.8820000  36.2210000   8.8030000 -27.2250000  37.4850000   9.9270000
 -28.0900000  36.8200000   9.9470000 -27.5970000  38.5100000   9.8710000
 -26.4450000  37.2980000  11.2370000 -25.6110000  38.0020000  11.2800000
 -26.0250000  36.2900000  11.2530000 -27.3750000  37.5120000  12.4480000
 -28.3210000  36.9910000  12.2860000 -27.6050000  38.5780000  12.5140000
 -26.7880000  37.0540000  13.7950000 -27.3600000  37.5230000  14.5980000
 -25.7550000  37.3910000  13.8990000 -26.8460000  35.5520000  13.9850000
 -26.6120000  34.7320000  13.1110000 -27.2200000  35.2210000  15.2370000
 -26.8510000  33.9020000  15.7360000 -26.9240000  33.1480000  14.9480000
 -27.5630000  33.6320000  16.5210000 -25.4210000  33.9030000  16.3500000
 -25.1770000  32.8750000  16.6300000 -25.3420000  34.8120000  17.6090000
 -24.5020000  34.5020000  18.2350000 -26.2610000  34.6920000  18.1880000
 -25.1660000  36.2150000  17.2540000 -25.5700000  37.4030000  18.2680000
 -24.5510000  37.1840000  19.4950000 -23.1320000  37.3730000  19.3300000
 -22.9100000  37.8150000  18.3550000 -22.6500000  36.3930000  19.3730000
 -22.5960000  38.2670000  20.4690000 -21.5060000  38.2710000  20.4190000
 -22.8920000  37.8480000  21.4320000 -22.9980000  39.7190000  20.4870000
 -22.7000000  40.3730000  19.1850000 -21.6410000  40.2280000  18.9670000
 -22.9380000  41.4330000  19.2780000 -23.3290000  39.9060000  18.4260000
 -24.4410000  39.8960000  20.8060000 -24.6520000  39.4110000  21.7610000
 -25.0190000  39.4330000  20.0050000 -24.6510000  40.9650000  20.8540000
 -22.2120000  40.4200000  21.5410000 -22.4320000  39.9590000  22.5050000
 -22.5030000  41.4720000  21.5410000 -21.1540000  40.3140000  21.2970000
 -25.2510000  38.7080000  17.6250000 -26.9510000  37.1720000  18.7780000
 -24.4780000  34.3710000  15.3430000 -23.1640000  34.1320000  15.4930000
 -22.6930000  33.4330000  16.3750000 -22.3330000  34.8570000  14.4560000
 -22.4140000  35.9280000  14.6520000 -21.2830000  34.5770000  14.5670000
 -22.8030000  34.5680000  13.0140000 -22.5830000  33.5300000  12.7550000
 -23.8850000  34.6980000  12.9450000 -22.1490000  35.5160000  11.9940000
 -22.3260000  36.5460000  12.3100000 -21.0680000  35.3560000  11.9840000
 -22.7180000  35.3290000  10.5760000 -22.5410000  34.3030000  10.2460000
 -23.7990000  35.4830000  10.6000000 -22.0940000  36.3070000   9.5640000
 -22.2400000  37.3300000   9.9170000 -21.0170000  36.1320000   9.5090000
 -22.7170000  36.1780000   8.1630000 -22.7810000  35.1220000   7.8900000
 -23.7360000  36.5690000   8.1940000 -21.9170000  36.9330000   7.0850000
 -21.6960000  37.9420000   7.4390000 -20.9570000  36.4370000   6.9250000
 -22.6840000  37.0390000   5.7840000 -23.1460000  38.0060000   5.6070000
 -22.7840000  36.0960000   4.8540000 -23.3420000  36.3130000   3.9460000
 -22.2390000  34.6850000   4.9510000 -21.4020000  34.5640000   4.2600000
 -21.8530000  34.4860000   5.9540000 -23.3210000  33.6370000   4.6210000
 -22.9370000  32.6400000   4.8470000 -24.1730000  33.8020000   5.2840000
 -23.8220000  33.6610000   3.1590000 -24.7250000  33.0500000   3.0990000
 -24.1230000  34.6750000   2.8900000 -22.8090000  33.1140000   2.1280000
 -21.8730000  32.8450000   2.6230000 -23.2130000  32.1860000   1.7180000
 -22.5250000  34.0780000   0.9570000 -22.0330000  33.5270000   0.1530000
 -23.4760000  34.4340000   0.5550000 -21.6490000  35.2920000   1.3260000
 -21.6620000  35.9910000   0.4860000 -22.0880000  35.8160000   2.1770000
 -20.1840000  34.9200000   1.6380000 -20.1480000  34.1950000   2.4540000
 -19.7360000  34.4400000   0.7650000 -19.3370000  36.1410000   2.0350000
 -18.3090000  35.8330000   2.2380000 -19.7420000  36.6100000   2.9340000
 -19.3210000  36.8810000   1.2330000 -41.0210000  14.0920000  -1.9790000
 -41.5640000  13.2480000  -2.4100000 -40.0400000  14.1540000  -2.4550000
 -41.5700000  15.0090000  -2.2040000 -40.8680000  13.9060000  -0.4620000
 -40.3550000  12.9610000  -0.2710000 -41.8560000  13.8440000  -0.0010000
 -40.0690000  15.0520000   0.1810000 -40.5760000  16.0020000  -0.0020000
 -39.0890000  15.1110000  -0.2970000 -39.8890000  14.8540000   1.6970000
 -39.4280000  13.8800000   1.8720000 -40.8660000  14.8500000   2.1830000
 -39.0100000  15.9610000   2.3090000 -39.4500000  16.9360000   2.0860000
 -38.0290000  15.9400000   1.8300000 -38.8140000  15.8470000   3.8330000
 -39.7510000  16.0800000   4.3410000 -38.0850000  16.6040000   4.1300000
 -38.3150000  14.4650000   4.2980000 -37.5130000  14.1300000   3.6360000
 -39.1290000  13.7430000   4.2200000 -37.7850000  14.5000000   5.7440000
 -38.5640000  14.8650000   6.4170000 -36.9650000  15.2200000   5.7960000
 -37.2630000  13.1300000   6.2260000 -36.6800000  13.2770000   7.1370000
 -36.5670000  12.7340000   5.4830000 -38.3550000  12.0750000   6.4970000
 -37.8680000  11.1470000   6.8070000 -38.8810000  11.8560000   5.5660000
 -39.3840000  12.4720000   7.5790000 -40.0590000  11.6300000   7.7460000
 -39.9930000  13.3040000   7.2170000 -38.7370000  12.8570000   8.9220000
 -38.0770000  13.7120000   8.7630000 -38.1220000  12.0280000   9.2800000
 -39.7590000  13.2400000  10.0070000 -40.3810000  12.3770000  10.2530000
 -40.4160000  14.0240000   9.6260000 -39.0410000  13.7440000  11.2730000
 -38.3490000  14.5420000  10.9960000 -38.4470000  12.9300000  11.6940000
 -40.0110000  14.2780000  12.3440000 -40.7240000  13.4990000  12.6230000
 -40.5960000  15.1040000  11.9360000 -39.2910000  14.7620000  13.5850000
 -38.0800000  14.8080000  13.7130000 -40.1470000  15.1800000  14.5390000
 -39.5990000  15.6630000  15.8030000 -38.7790000  15.0180000  16.1300000
 -40.3910000  15.6170000  16.5550000 -39.1210000  17.1340000  15.6840000
 -38.4370000  17.1970000  14.8340000 -38.3750000  17.6040000  16.9550000
 -38.3610000  18.6960000  17.0100000 -37.3400000  17.2570000  16.8970000
 -38.9740000  17.0410000  18.1550000 -38.3170000  17.2510000  19.6180000
 -39.3330000  18.2730000  20.3370000 -39.4520000  19.6510000  19.9250000
 -38.4760000  20.0310000  19.6100000 -39.7830000  20.2430000  20.7830000
 -40.4770000  19.7870000  18.7740000 -40.1570000  19.1880000  17.9200000
 -40.5050000  20.8320000  18.4630000 -41.9130000  19.4100000  19.0280000
 -42.0720000  17.9480000  19.2880000 -41.6220000  17.3980000  18.4600000
 -43.1340000  17.7150000  19.3790000 -41.5510000  17.7090000  20.2170000
 -42.4750000  20.1850000  20.1730000 -42.3390000  21.2470000  19.9650000
 -41.9320000  19.9040000  21.0770000 -43.5340000  19.9420000  20.2760000
 -42.7080000  19.7400000  17.8100000 -42.5730000  20.8010000  17.5950000
 -43.7580000  19.5180000  18.0050000 -42.3330000  19.1380000  16.9800000
 -38.3870000  15.9490000  20.3330000 -36.9910000  17.9110000  19.4790000
 -40.2890000  17.9710000  15.4340000 -40.1260000  19.0520000  14.6460000
 -39.0440000  19.5490000  14.4000000 -41.4230000  19.5340000  14.0350000
 -42.2670000  18.9920000  14.4670000 -41.5590000  20.5930000  14.2640000
 -41.4000000  19.3510000  12.5050000 -42.2220000  19.9140000  12.0590000
 -40.4740000  19.7750000  12.1100000 -41.5310000  17.8720000  12.0970000
 -40.9550000  17.2440000  12.7800000 -42.5760000  17.5740000  12.2000000
 -41.0640000  17.5900000  10.6570000 -41.4370000  16.6070000  10.3610000
 -41.5050000  18.3220000   9.9770000 -39.5260000  17.5960000  10.5280000
 -39.1400000  18.6070000  10.6730000 -39.1020000  16.9780000  11.3230000
 -39.0370000  17.0360000   9.1780000 -37.9550000  16.8980000   9.2290000
 -39.4760000  16.0490000   9.0230000 -39.3550000  17.9190000   7.9580000
 -39.1900000  17.3250000   7.0570000 -40.4110000  18.1960000   7.9760000
 -38.4920000  19.1640000   7.9530000 -38.4040000  19.6730000   8.9100000
 -37.7970000  19.6130000   6.9130000 -37.1730000  20.4950000   7.0290000
 -37.8570000  19.0390000   5.5130000 -37.0780000  18.2810000   5.4090000
 -38.8190000  18.5580000   5.3240000 -37.6120000  20.1130000   4.4400000
 -36.6080000  20.5170000   4.5850000 -37.6170000  19.6320000   3.4590000
 -38.6260000  21.2760000   4.4390000 -38.7180000  21.6920000   5.4440000
 -38.2350000  22.0720000   3.8020000 -40.0170000  20.8730000   3.9110000
 -39.9020000  20.4810000   2.8990000 -40.4360000  20.0760000   4.5290000
 -40.9820000  22.0740000   3.9030000 -41.1630000  22.3870000   4.9330000
 -40.5010000  22.9160000   3.4000000 -42.3380000  21.8000000   3.2220000
 -42.8590000  21.0150000   3.7740000 -42.9510000  22.7000000   3.3010000
 -42.2450000  21.3970000   1.7350000 -41.7570000  20.4230000   1.6470000
 -43.2570000  21.2790000   1.3420000 -41.4920000  22.4140000   0.8600000
 -41.5410000  22.1170000  -0.1900000 -40.4400000  22.4710000   1.1480000
 -41.9360000  23.4070000   0.9590000 -39.5710000   9.2830000  -1.7190000
 -39.2540000   8.2960000  -1.3750000 -38.6900000   9.9240000  -1.7900000
 -40.0080000   9.1760000  -2.7140000 -40.5950000   9.8850000  -0.7460000
 -41.4600000   9.2220000  -0.6860000 -40.9410000  10.8460000  -1.1320000
 -39.9970000  10.0820000   0.6570000 -39.2160000  10.8450000   0.6170000
 -39.5280000   9.1480000   0.9740000 -41.0570000  10.4730000   1.7000000
 -41.8140000   9.6870000   1.7330000 -41.5520000  11.3980000   1.3980000
 -40.4320000  10.6650000   3.0950000 -39.8590000  11.5950000   3.0990000
 -39.7230000   9.8560000   3.2880000 -41.4570000  10.6960000   4.2450000
 -42.2000000  11.4760000   4.0660000 -40.9190000  10.9690000   5.1550000
 -42.1610000   9.3350000   4.4460000 -41.4190000   8.5380000   4.3700000
 -42.8810000   9.1770000   3.6400000 -42.8890000   9.1840000   5.7970000
 -43.3580000   8.1980000   5.8260000 -43.6880000   9.9250000   5.8720000
 -41.9310000   9.3280000   6.9960000 -41.6730000  10.3820000   7.1160000
 -41.0090000   8.7810000   6.7880000 -42.5180000   8.8130000   8.3190000
 -42.7730000   7.7570000   8.2060000 -43.4410000   9.3510000   8.5460000
 -41.5260000   8.9750000   9.4870000 -41.2930000  10.0310000   9.6320000
 -40.5950000   8.4620000   9.2330000 -42.0920000   8.3800000  10.7880000
 -42.4730000   7.3830000  10.5610000 -42.9420000   8.9770000  11.1260000
 -41.0500000   8.2440000  11.9160000 -40.1450000   7.7920000  11.5060000
 -41.4330000   7.5480000  12.6650000 -40.6740000   9.5590000  12.6280000
 -40.3990000  10.3170000  11.8910000 -39.7900000   9.3660000  13.2380000
 -41.7990000  10.0930000  13.5430000 -42.1410000   9.2990000  14.2100000
 -42.6570000  10.4040000  12.9430000 -41.3580000  11.2630000  14.3990000
 -40.2380000  11.7510000  14.3740000 -42.3630000  11.7320000  15.1660000
 -42.1040000  12.9070000  15.9950000 -42.0870000  13.7850000  15.3440000
 -41.1250000  12.8230000  16.4730000 -43.1830000  13.1120000  17.1000000
 -43.1260000  14.1510000  17.4360000 -42.9900000  12.2350000  18.3670000
 -43.8880000  12.3220000  18.9840000 -42.1460000  12.6170000  18.9470000
 -42.7770000  10.8260000  18.0640000 -41.3510000  10.0930000  18.3010000
 -41.3960000   9.7220000  19.8680000 -42.2850000   8.7050000  20.3740000
 -41.7350000   8.0740000  21.0760000 -42.6380000   8.0720000  19.5560000
 -43.4930000   9.3680000  21.0790000 -44.1800000   8.5800000  21.3900000
 -44.0150000  10.0120000  20.3700000 -43.2370000  10.2010000  22.3160000
 -42.5790000  11.4990000  21.9830000 -41.6180000  11.2870000  21.5120000
 -42.4320000  12.0630000  22.9060000 -43.2250000  12.0520000  21.2990000
 -44.5450000  10.5080000  22.9680000 -45.0200000   9.5700000  23.2580000
 -45.1730000  11.0470000  22.2570000 -44.3580000  11.1230000  23.8490000
 -42.3910000   9.4680000  23.3060000 -42.8720000   8.5170000  23.5420000
 -42.2980000  10.0790000  24.2040000 -41.4080000   9.3010000  22.8630000
 -41.3220000   8.8330000  17.5060000 -40.2520000  11.0800000  18.1180000
 -44.5210000  12.8790000  16.5740000 -45.0200000  13.7410000  15.6730000
 -44.5190000  14.8180000  15.4040000 -46.2710000  13.2150000  15.0170000
 -46.8340000  12.6180000  15.7370000 -46.8970000  14.0550000  14.7100000
 -45.9030000  12.3540000  13.7930000 -45.3060000  12.9580000  13.1080000
 -45.2850000  11.5130000  14.1140000 -47.1480000  11.8170000  13.0620000
 -47.7400000  11.2200000  13.7580000 -47.7700000  12.6570000  12.7460000
 -46.8080000  10.9530000  11.8320000 -46.2220000  10.0870000  12.1480000
 -47.7410000  10.5750000  11.4080000 -46.0340000  11.7170000  10.7410000
 -46.5540000  12.6530000  10.5240000 -45.0350000  11.9690000  11.1050000
 -45.9030000  10.8900000   9.4480000 -45.4050000   9.9470000   9.6810000
 -46.9010000  10.6460000   9.0780000 -45.1150000  11.6030000   8.3320000
 -44.0890000  11.7720000   8.6670000 -45.0520000  10.9440000   7.4640000
 -45.7360000  12.9280000   7.9400000 -45.3110000  13.7990000   8.4330000
 -46.7000000  13.0980000   7.0400000 -47.0500000  14.1040000   6.8220000
 -47.4210000  12.0000000   6.2870000 -47.0360000  11.0100000   6.5410000
 -48.4750000  12.0170000   6.5700000 -47.3340000  12.2130000   4.7660000
 -47.9990000  11.5000000   4.2740000 -47.7030000  13.2130000   4.5290000
 -45.9090000  12.0450000   4.2010000 -45.2400000  12.7740000   4.6650000
 -45.5340000  11.0500000   4.4520000 -45.8810000  12.2310000   2.6740000
 -46.5660000  11.5180000   2.2110000 -46.2400000  13.2350000   2.4400000
 -44.4750000  12.0480000   2.0740000 -43.8110000  12.8210000   2.4680000
 -44.0740000  11.0830000   2.3890000 -44.4650000  12.1040000   0.5330000
 -43.4380000  11.9760000   0.1830000 -45.0410000  11.2620000   0.1450000
 -45.0340000  13.4140000  -0.0480000 -46.0830000  13.5210000   0.2340000
 -44.4940000  14.2680000   0.3670000 -44.9370000  13.4420000  -1.5810000
 -45.4560000  14.3150000  -1.9810000 -45.3960000  12.5460000  -2.0050000
 -43.8930000  13.4800000  -1.8990000 -10.4570000  38.6620000   1.1400000
 -11.0850000  39.1100000   0.3660000  -9.4590000  39.0990000   1.0690000
 -10.8830000  38.9180000   2.1120000 -10.3940000  37.1350000   0.9520000
 -10.0620000  36.9200000  -0.0660000 -11.4010000  36.7210000   1.0410000
  -9.4450000  36.4250000   1.9420000  -8.4210000  36.7530000   1.7480000
  -9.4720000  35.3510000   1.7470000  -9.7630000  36.6710000   3.4300000
  -9.6100000  37.7260000   3.6640000  -9.0490000  36.1050000   4.0320000
 -11.1970000  36.2630000   3.8240000 -11.3330000  35.1930000   3.6550000
 -11.9140000  36.7820000   3.1840000 -11.5500000  36.6120000   5.2810000
 -12.5980000  36.3550000   5.4480000 -11.4640000  37.6920000   5.4170000
 -10.7040000  35.9090000   6.3590000 -11.0710000  36.2510000   7.3290000
  -9.6620000  36.2290000   6.2850000 -10.7740000  34.3690000   6.2820000
 -10.2150000  34.0330000   5.4060000 -11.8090000  34.0510000   6.1430000
 -10.2010000  33.6710000   7.5320000  -9.1890000  34.0410000   7.7090000
 -10.1270000  32.6000000   7.3350000 -11.0590000  33.8910000   8.7950000
 -12.0690000  33.5170000   8.6180000 -11.1370000  34.9600000   9.0020000
 -10.4780000  33.2020000  10.0420000  -9.4290000  33.4850000  10.1490000
 -10.5160000  32.1180000   9.9160000 -11.2430000  33.6060000  11.3170000
 -12.2720000  33.2450000  11.2530000 -11.2860000  34.6960000  11.3740000
 -10.5870000  33.0660000  12.6010000  -9.5390000  33.3730000  12.6200000
 -10.6110000  31.9740000  12.5920000 -11.2980000  33.5900000  13.8660000
 -12.3490000  33.2930000  13.8280000 -11.2750000  34.6810000  13.8640000
 -10.6840000  33.0720000  15.1840000 -10.7260000  31.9820000  15.2110000
 -11.2690000  33.4490000  16.0260000  -9.2530000  33.5190000  15.3520000
  -8.2940000  32.7920000  15.1580000  -9.1530000  34.8110000  15.7130000
  -7.8350000  35.4350000  15.6990000  -7.2610000  35.0330000  14.8600000
  -7.3050000  35.2010000  16.6260000  -7.9260000  36.9710000  15.4890000
  -6.9350000  37.3020000  15.1670000  -8.2930000  37.7650000  16.7690000
  -8.3140000  38.8360000  16.5520000  -7.5130000  37.5840000  17.5140000
  -9.5710000  37.3710000  17.3320000  -9.8770000  37.5710000  18.9000000
  -9.1050000  36.3280000  19.5610000  -9.5530000  34.9790000  19.3310000
  -9.0390000  34.5870000  18.4500000 -10.6280000  34.9590000  19.1380000
  -9.2200000  34.1190000  20.5730000  -8.1500000  34.1800000  20.7740000
  -9.4650000  33.0790000  20.3490000  -9.9190000  34.4390000  21.8750000
 -11.4020000  34.4950000  21.6990000 -11.6380000  35.3250000  21.0310000
 -11.8620000  34.6590000  22.6750000 -11.7420000  33.5510000  21.2720000
  -9.6070000  33.3640000  22.8630000  -8.5270000  33.3270000  23.0080000
  -9.9700000  32.4110000  22.4740000 -10.1060000  33.6000000  23.8040000
  -9.4480000  35.7330000  22.4500000  -8.3660000  35.6840000  22.5780000
  -9.9410000  35.8930000  23.4100000  -9.7060000  36.5320000  21.7530000
  -9.2060000  38.8180000  19.3570000 -11.3370000  37.4140000  19.1400000
  -8.8740000  37.2320000  14.4180000  -8.7070000  38.3140000  13.6440000
  -7.8950000  39.1930000  13.8680000  -9.5960000  38.2810000  12.4240000
 -10.6390000  38.2560000  12.7460000  -9.4450000  39.1920000  11.8410000
  -9.2980000  37.0450000  11.5480000  -9.5550000  36.1410000  12.1040000
  -9.9410000  37.0720000  10.6650000  -7.8250000  36.9610000  11.1030000
  -7.5840000  37.8470000  10.5120000  -7.1720000  36.9600000  11.9790000
  -7.5430000  35.6850000  10.2910000  -7.7870000  34.8160000  10.9070000
  -8.2000000  35.6550000   9.4200000  -6.0740000  35.5570000   9.8410000
  -5.4410000  35.4480000  10.7230000  -5.9670000  34.6360000   9.2630000
  -5.5470000  36.7390000   8.9990000  -5.4280000  37.6110000   9.6460000
  -4.5510000  36.4850000   8.6320000  -6.4320000  37.1380000   7.8010000
  -7.3770000  37.5360000   8.1760000  -5.9370000  37.9510000   7.2650000
  -6.7210000  35.9650000   6.8850000  -7.1610000  35.0990000   7.3730000
  -6.4850000  35.9140000   5.5780000  -6.7440000  35.0090000   5.0350000
  -5.8990000  37.0260000   4.7320000  -6.3870000  37.0300000   3.7550000
  -6.1140000  38.0000000   5.1770000  -4.3710000  36.8760000   4.5610000
  -3.9740000  37.7410000   4.0270000  -3.9090000  36.8760000   5.5500000
  -3.9500000  35.5930000   3.8170000  -2.8670000  35.4780000   3.8950000
  -4.3840000  34.7320000   4.3300000  -4.3360000  35.5800000   2.3200000
  -5.1690000  36.2590000   2.1240000  -3.4900000  35.9490000   1.7380000
  -4.7200000  34.1720000   1.8290000  -4.6880000  34.1470000   0.7380000
  -3.9870000  33.4500000   2.1950000  -6.1320000  33.7680000   2.2960000
  -6.2420000  33.9730000   3.3630000  -6.8710000  34.3730000   1.7680000
  -6.4220000  32.2780000   2.0650000  -6.2620000  32.0280000   1.0140000
  -5.7170000  31.6870000   2.6540000  -7.8580000  31.9120000   2.4720000
  -8.0350000  30.8460000   2.3120000  -8.5810000  32.4750000   1.8790000
  -8.0250000  32.1350000   3.5270000 -23.4340000 -34.9010000  -2.0670000
 -23.9820000 -34.8580000  -3.0110000 -22.5140000 -34.3250000  -2.1860000
 -24.0450000 -34.4300000  -1.2930000 -23.1300000 -36.3640000  -1.6990000
 -22.5340000 -36.8190000  -2.4930000 -24.0720000 -36.9130000  -1.6470000
 -22.3910000 -36.5220000  -0.3590000 -22.3280000 -37.5880000  -0.1310000
 -22.9800000 -36.0520000   0.4320000 -20.9680000 -35.9300000  -0.3670000
 -21.0050000 -34.8820000  -0.6690000 -20.3730000 -36.4600000  -1.1130000
 -20.2530000 -36.0080000   0.9960000 -20.7560000 -35.3440000   1.7020000
 -19.2370000 -35.6290000   0.8700000 -20.2020000 -37.4310000   1.5880000
 -19.9770000 -38.1430000   0.7920000 -21.1900000 -37.6890000   1.9760000
 -19.1550000 -37.6060000   2.7050000 -18.1590000 -37.4390000   2.2910000
 -19.1870000 -38.6420000   3.0490000 -19.3570000 -36.6720000   3.9120000
 -20.3560000 -36.8320000   4.3240000 -19.2910000 -35.6300000   3.5910000
 -18.3090000 -36.9320000   5.0080000 -17.3120000 -36.7640000   4.5960000
 -18.3640000 -37.9820000   5.3040000 -18.5000000 -36.0290000   6.2450000
 -19.4850000 -36.2030000   6.6820000 -18.4670000 -34.9860000   5.9250000
 -17.4080000 -36.2530000   7.3120000 -17.4570000 -35.4530000   8.0540000
 -16.4330000 -36.1620000   6.8280000 -17.4840000 -37.6250000   8.0180000
 -16.4780000 -38.0490000   8.0500000 -18.0960000 -38.3200000   7.4380000
 -18.0160000 -37.5790000   9.4640000 -17.3090000 -37.0220000  10.0820000
 -18.0420000 -38.6000000   9.8520000 -19.4150000 -36.9490000   9.6170000
 -20.1230000 -37.4550000   8.9580000 -19.3710000 -35.9000000   9.3180000
 -19.9050000 -37.0500000  11.0780000 -19.1340000 -36.6730000  11.7540000
 -20.0720000 -38.0980000  11.3330000 -21.1740000 -36.2750000  11.3510000
 -21.6330000 -35.4110000  10.6240000 -21.7330000 -36.6400000  12.5220000
 -22.8770000 -35.8740000  13.0010000 -23.6280000 -35.8050000  12.2110000
 -22.5490000 -34.8620000  13.2520000 -23.5230000 -36.5430000  14.2410000
 -24.2820000 -35.8630000  14.6350000 -22.4860000 -36.8310000  15.3500000
 -21.7510000 -36.0250000  15.4160000 -21.9620000 -37.7560000  15.0960000
 -23.1580000 -36.9630000  16.6340000 -22.5960000 -37.9460000  17.7880000
 -21.3300000 -37.1370000  18.3760000 -21.4800000 -36.1900000  19.4510000
 -22.1180000 -36.6250000  20.2250000 -21.9520000 -35.2750000  19.0830000
 -20.0960000 -35.9130000  20.0820000 -19.6320000 -36.8670000  20.3360000
 -20.2410000 -35.3530000  21.0070000 -19.0660000 -35.1400000  19.2920000
 -18.6440000 -35.8610000  18.0550000 -18.2400000 -36.8320000  18.3430000
 -17.8850000 -35.2640000  17.5460000 -19.5190000 -35.9980000  17.4180000
 -19.5680000 -33.7840000  18.9220000 -19.8930000 -33.2720000  19.8290000
 -20.3960000 -33.8920000  18.2190000 -18.7480000 -33.2320000  18.4620000
 -17.8620000 -34.9640000  20.1520000 -18.1500000 -34.4160000  21.0510000
 -17.1200000 -34.3960000  19.5900000 -17.4690000 -35.9470000  20.4130000
 -23.6410000 -38.0450000  18.8430000 -22.0920000 -39.2020000  17.1700000
 -24.1080000 -37.8060000  13.8120000 -25.4370000 -38.0000000  13.9000000
 -26.2030000 -37.2560000  14.4840000 -25.9090000 -39.2270000  13.1500000
 -25.6910000 -40.1100000  13.7550000 -26.9920000 -39.1680000  13.0250000
 -25.2390000 -39.3870000  11.7660000 -24.1770000 -39.5960000  11.9130000
 -25.6670000 -40.2590000  11.2660000 -25.3920000 -38.1730000  10.8270000
 -26.4290000 -38.0920000  10.4970000 -25.1450000 -37.2520000  11.3590000
 -24.4600000 -38.3000000   9.6100000 -23.4330000 -38.4290000   9.9590000
 -24.7330000 -39.1980000   9.0500000 -24.5210000 -37.0700000   8.6840000
 -25.5180000 -37.0040000   8.2440000 -24.3680000 -36.1660000   9.2760000
 -23.4680000 -37.1020000   7.5580000 -23.6130000 -36.2280000   6.9190000
 -22.4710000 -37.0230000   7.9940000 -23.5460000 -38.3760000   6.6990000
 -23.2820000 -39.2350000   7.3200000 -24.5770000 -38.5060000   6.3640000
 -22.5840000 -38.3140000   5.5310000 -21.6590000 -37.7770000   5.7290000
 -22.7940000 -38.8220000   4.3200000 -22.0290000 -38.7030000   3.5560000
 -24.0070000 -39.6240000   3.8910000 -23.6980000 -40.6590000   3.7270000
 -24.7700000 -39.6450000   4.6720000 -24.6470000 -39.0770000   2.5990000
 -25.6760000 -39.4380000   2.5380000 -24.6960000 -37.9880000   2.6600000
 -23.9100000 -39.4910000   1.3110000 -24.2580000 -38.8650000   0.4870000
 -22.8410000 -39.3050000   1.4380000 -24.1630000 -40.9690000   0.9460000
 -23.9390000 -41.6060000   1.8040000 -25.2240000 -41.1000000   0.7210000
 -23.3440000 -41.4800000  -0.2510000 -23.6160000 -42.5240000  -0.4180000
 -23.6160000 -40.9270000  -1.1530000 -21.8240000 -41.3690000  -0.0190000
 -21.5210000 -40.3270000  -0.1480000 -21.5890000 -41.6460000   1.0110000
 -20.9950000 -42.2540000  -0.9650000 -21.2780000 -42.0650000  -2.0020000
 -19.9410000 -41.9860000  -0.8610000 -21.1410000 -43.7520000  -0.6530000
 -20.3830000 -44.3150000  -1.2020000 -22.1290000 -44.1170000  -0.9420000
 -21.0020000 -43.9420000   0.4130000 -20.7460000  31.0150000  -2.4110000
 -20.7680000  32.0340000  -2.8010000 -21.7580000  30.6070000  -2.4540000
 -20.0980000  30.4140000  -3.0530000 -20.2260000  31.0090000  -0.9650000
 -20.8710000  31.6560000  -0.3660000 -19.2220000  31.4390000  -0.9460000
 -20.1960000  29.5960000  -0.3490000 -19.6490000  28.9290000  -1.0180000
 -21.2180000  29.2170000  -0.2780000 -19.5320000  29.5290000   1.0410000
 -18.4620000  29.7190000   0.9340000 -19.6360000  28.5160000   1.4340000
 -20.1110000  30.5290000   2.0580000 -21.1770000  30.3370000   2.1950000
 -20.0060000  31.5450000   1.6720000 -19.3920000  30.4570000   3.4160000
 -18.3230000  30.6160000   3.2640000 -19.5230000  29.4640000   3.8530000
 -19.9230000  31.5270000   4.3830000 -20.9840000  31.3490000   4.5740000
 -19.8360000  32.5060000   3.9080000 -19.1590000  31.5590000   5.7160000
 -18.0970000  31.7190000   5.5160000 -19.2620000  30.6000000   6.2260000
 -19.6830000  32.6910000   6.6150000 -20.7430000  32.5270000   6.8230000
 -19.5960000  33.6390000   6.0790000 -18.9150000  32.7980000   7.9400000
 -17.8550000  32.9510000   7.7290000 -19.0140000  31.8590000   8.4890000
 -19.4430000  33.9610000   8.7980000 -20.4780000  33.7550000   9.0800000
 -19.4530000  34.8700000   8.1930000 -18.6050000  34.2330000  10.0610000
 -19.0730000  35.0390000  10.6310000 -17.6200000  34.5930000   9.7560000
 -18.4070000  33.0130000  10.9790000 -17.7920000  33.3190000  11.8280000
 -17.8430000  32.2450000  10.4440000 -19.7140000  32.3960000  11.5080000
 -20.3430000  32.0670000  10.6770000 -20.2690000  33.1470000  12.0740000
 -19.4050000  31.1960000  12.4150000 -18.7420000  31.5090000  13.2240000
 -18.8840000  30.4230000  11.8460000 -20.6530000  30.6030000  13.0190000
 -21.2340000  29.6340000  12.5630000 -21.0450000  31.2510000  14.1330000
 -21.4830000  30.4230000  15.2520000 -22.0030000  29.5270000  14.9040000
 -22.1780000  30.9980000  15.8690000 -20.2560000  30.0310000  16.1200000
 -20.6180000  29.4080000  16.9410000 -19.5760000  31.3050000  16.7100000
 -19.4690000  31.1630000  17.7890000 -20.2130000  32.1780000  16.5520000
 -18.2570000  31.5760000  16.1520000 -17.3560000  32.7910000  16.7250000
 -17.1120000  32.3470000  18.2550000 -16.1750000  31.3040000  18.5720000
 -15.1550000  31.6840000  18.4710000 -16.3110000  30.4800000  17.8680000
 -16.4490000  30.7870000  20.0050000 -15.7610000  29.9650000  20.2120000
 -17.4660000  30.3960000  20.0560000 -16.3050000  31.7480000  21.1620000
 -17.4210000  32.7390000  21.1970000 -17.3820000  33.3320000  20.2820000
 -17.2940000  33.3800000  22.0700000 -18.3660000  32.1980000  21.2510000
 -16.3490000  30.9710000  22.4360000 -15.5190000  30.2630000  22.4460000
 -17.3000000  30.4390000  22.4860000 -16.2620000  31.6660000  23.2720000
 -15.0040000  32.4820000  21.1050000 -14.1920000  31.7530000  21.0750000
 -14.9210000  33.1090000  21.9940000 -14.9980000  33.1010000  20.2070000
 -16.0430000  32.7860000  16.0200000 -18.1660000  34.0420000  16.7300000
 -19.3450000  29.2420000  15.2970000 -18.3680000  28.5410000  15.9020000
 -18.1620000  28.5070000  17.1050000 -17.5340000  27.7680000  14.9050000
 -17.4210000  26.7450000  15.2690000 -18.0570000  27.7210000  13.9470000
 -16.1480000  28.4170000  14.7170000 -16.2570000  29.3930000  14.2400000
 -15.7050000  28.5880000  15.7010000 -15.1830000  27.5310000  13.9050000
 -14.1730000  27.9400000  13.9830000 -15.1520000  26.5430000  14.3690000
 -15.5510000  27.3520000  12.4180000 -14.9180000  26.5630000  12.0080000
 -16.5800000  26.9950000  12.3330000 -15.3810000  28.6100000  11.5400000
 -15.6110000  28.3260000  10.5110000 -16.1070000  29.3720000  11.8320000
 -13.9570000  29.2090000  11.5880000 -13.8460000  29.8080000  12.4940000
 -13.2300000  28.3970000  11.6550000 -13.5940000  30.0650000  10.3570000
 -12.5510000  30.3730000  10.4530000 -13.6500000  29.4490000   9.4570000
 -14.4510000  31.3080000  10.2270000 -14.1880000  32.1130000  10.9090000
 -15.4010000  31.5180000   9.3210000 -15.9050000  32.4810000   9.3040000
 -15.9430000  30.5060000   8.3300000 -15.5800000  29.4970000   8.5380000
 -17.0290000  30.4730000   8.4340000 -15.6160000  30.8800000   6.8730000
 -16.2040000  30.2370000   6.2150000 -15.9390000  31.9070000   6.6900000
 -14.1230000  30.7320000   6.5140000 -13.5160000  31.2370000   7.2690000
 -13.8520000  29.6750000   6.5440000 -13.7590000  31.3210000   5.1350000
 -13.8280000  32.4100000   5.1940000 -12.7150000  31.0860000   4.9170000
 -14.6380000  30.8470000   3.9590000 -15.6690000  31.1640000   4.1270000
 -14.2990000  31.3540000   3.0530000 -14.6060000  29.3260000   3.7110000
 -13.5850000  29.0160000   3.4800000 -14.9180000  28.7940000   4.6120000
 -15.5390000  28.9340000   2.5500000 -16.5640000  29.2160000   2.8000000
 -15.2540000  29.4960000   1.6580000 -15.5010000  27.4330000   2.2270000
 -16.2170000  27.1980000   1.4360000 -15.7550000  26.8440000   3.1100000
 -14.5050000  27.1440000   1.8830000 -31.5290000  30.5180000  -0.4510000
 -31.1970000  30.9540000  -1.3960000 -32.5690000  30.2040000  -0.5600000
 -30.9190000  29.6360000  -0.2450000 -31.3900000  31.5450000   0.6850000
 -31.9910000  32.4250000   0.4470000 -30.3470000  31.8630000   0.7410000
 -31.8370000  30.9660000   2.0420000 -31.2070000  30.1100000   2.2920000
 -32.8600000  30.5960000   1.9430000 -31.7960000  31.9810000   3.2030000
 -32.1840000  31.4960000   4.1010000 -32.4630000  32.8150000   2.9730000
 -30.3830000  32.5220000   3.4920000 -29.9990000  33.0110000   2.5940000
 -29.7120000  31.6910000   3.7190000 -30.3380000  33.5430000   4.6450000
 -31.0420000  34.3520000   4.4350000 -29.3390000  33.9830000   4.6660000
 -30.6270000  32.9400000   6.0350000 -29.9460000  32.1020000   6.1990000
 -31.6440000  32.5460000   6.0780000 -30.4190000  33.9660000   7.1660000
 -29.4690000  34.4800000   7.0090000 -30.3400000  33.4280000   8.1130000
 -31.5590000  35.0010000   7.2720000 -32.4600000  34.5050000   7.6390000
 -31.7960000  35.3870000   6.2780000 -31.2280000  36.2010000   8.1810000
 -32.1330000  36.7990000   8.3140000 -30.5010000  36.8320000   7.6660000
 -30.6530000  35.8520000   9.5670000 -30.4490000  36.7840000  10.0980000
 -29.6960000  35.3450000   9.4350000 -31.5650000  34.9760000  10.4440000
 -31.7990000  34.0480000   9.9180000 -32.5060000  35.4960000  10.6350000
 -30.8720000  34.6420000  11.7770000 -30.6960000  35.5650000  12.3330000
 -29.8970000  34.1960000  11.5700000 -31.6870000  33.6690000  12.6470000
 -31.8720000  32.7510000  12.0870000 -32.6560000  34.1150000  12.8820000
 -30.9420000  33.3280000  13.9520000 -30.7850000  34.2340000  14.5420000
 -29.9600000  32.9130000  13.7190000 -31.7140000  32.3320000  14.7810000
 -32.6730000  32.6290000  15.4740000 -31.2230000  31.0840000  14.6720000
 -31.8780000  30.0150000  15.4180000 -32.8910000  29.8840000  15.0280000
 -31.9520000  30.2960000  16.4710000 -31.1040000  28.6660000  15.3130000
 -31.7960000  27.8610000  15.5730000 -29.9220000  28.5580000  16.3110000
 -29.3330000  27.6630000  16.0940000 -30.3400000  28.4560000  17.3160000
 -29.0520000  29.7250000  16.2930000 -28.1260000  30.0930000  17.5640000
 -29.1700000  30.8170000  18.5500000 -29.5730000  32.1770000  18.3110000
 -29.9800000  32.2500000  17.2990000 -28.7060000  32.8380000  18.3880000
 -30.6600000  32.5790000  19.3350000 -31.4910000  31.8760000  19.2690000
 -31.0320000  33.5700000  19.0720000 -30.2800000  32.6540000  20.7970000
 -29.0800000  33.5200000  21.0070000 -28.2230000  33.0480000  20.5250000
 -28.9020000  33.6110000  22.0800000 -29.2730000  34.5010000  20.5720000
 -31.4210000  33.2500000  21.5550000 -32.3000000  32.6190000  21.4140000
 -31.6090000  34.2540000  21.1740000 -31.1530000  33.2920000  22.6120000
 -30.0100000  31.3010000  21.3680000 -30.8970000  30.6810000  21.2290000
 -29.7770000  31.4060000  22.4280000 -29.1640000  30.8660000  20.8330000
 -27.6710000  28.8350000  18.2190000 -27.1070000  31.0890000  17.1390000
 -30.6170000  28.4180000  13.9600000 -31.5120000  28.1370000  12.9940000
 -32.7150000  28.0430000  13.1800000 -30.8590000  27.9310000  11.6470000
 -29.8530000  27.5350000  11.7980000 -31.4210000  27.1820000  11.0840000
 -30.7730000  29.2370000  10.8330000 -30.2150000  29.9840000  11.4010000
 -30.2060000  29.0360000   9.9220000 -32.1500000  29.8110000  10.4440000
 -32.7440000  29.0250000   9.9730000 -32.6780000  30.1320000  11.3440000
 -32.0220000  31.0050000   9.4790000 -31.3450000  31.7430000   9.9160000
 -31.5660000  30.6670000   8.5460000 -33.3650000  31.6930000   9.1650000
 -33.7940000  32.0850000  10.0900000 -33.1690000  32.5470000   8.5140000
 -34.3920000  30.7730000   8.4760000 -33.9350000  30.3280000   7.5900000
 -34.6710000  29.9590000   9.1480000 -35.6610000  31.5420000   8.0610000
 -36.1220000  31.9800000   8.9480000 -35.3890000  32.3740000   7.4080000
 -36.6640000  30.6340000   7.3770000 -37.4410000  30.2390000   8.0260000
 -36.6730000  30.3170000   6.0860000 -37.4560000  29.6640000   5.7070000
 -35.6580000  30.7650000   5.0520000 -36.1770000  31.1550000   4.1730000
 -35.0370000  31.5760000   5.4370000 -34.7350000  29.6090000   4.6210000
 -33.9400000  30.0260000   3.9990000 -34.2620000  29.1820000   5.5070000
 -35.4530000  28.4930000   3.8340000 -36.3190000  28.1500000   4.4040000
 -35.8280000  28.8990000   2.8920000 -34.5480000  27.2780000   3.5440000
 -34.2330000  26.8390000   4.4920000 -35.1330000  26.5220000   3.0160000
 -33.3000000  27.6210000   2.7080000 -33.6100000  28.0720000   1.7620000
 -32.6920000  28.3540000   3.2420000 -32.4310000  26.3840000   2.4230000
 -32.1270000  25.9320000   3.3690000 -33.0250000  25.6450000   1.8820000
 -31.1780000  26.7380000   1.6020000 -31.4790000  27.1780000   0.6480000
 -30.5950000  27.4910000   2.1370000 -30.2870000  25.5140000   1.3340000
 -29.4180000  25.8050000   0.7410000 -30.8380000  24.7470000   0.7850000
 -29.9370000  25.0820000   2.2740000  11.3670000  26.3410000   1.5350000
  11.7960000  25.3810000   1.2440000  11.4660000  27.0290000   0.6930000
  10.3060000  26.1940000   1.7440000  12.0940000  26.8850000   2.7770000
  13.1410000  27.0750000   2.5350000  12.0690000  26.1200000   3.5560000
  11.4620000  28.1720000   3.3270000  11.8650000  28.3610000   4.3250000
  10.3890000  28.0000000   3.4370000  11.7040000  29.4140000   2.4460000
  11.5420000  29.1560000   1.3970000  12.7480000  29.7210000   2.5370000
  10.7790000  30.5980000   2.7900000   9.7560000  30.3390000   2.5070000
  11.0590000  31.4610000   2.1830000  10.7840000  31.0080000   4.2730000
  10.4820000  30.1630000   4.8950000  10.0280000  31.7840000   4.4130000
  12.1390000  31.5480000   4.7600000  12.4220000  32.4140000   4.1580000
  12.9120000  30.7870000   4.6340000  12.0610000  31.9540000   6.2410000
  11.8110000  31.0730000   6.8350000  11.2520000  32.6770000   6.3710000
  13.3720000  32.5770000   6.7520000  13.6290000  33.4290000   6.1200000
  14.1850000  31.8530000   6.6670000  13.2580000  33.0630000   8.2080000
  12.4050000  33.7380000   8.2910000  14.1510000  33.6420000   8.4530000
  13.1040000  31.9230000   9.2350000  13.9710000  31.2620000   9.1780000
  12.2200000  31.3250000   9.0060000  12.9710000  32.4730000  10.6650000
  12.0300000  33.0210000  10.7460000  13.7810000  33.1800000  10.8570000
  13.0140000  31.3660000  11.7310000  13.9820000  30.8620000  11.6840000
  12.2440000  30.6250000  11.5060000  12.7930000  31.9400000  13.1440000
  11.7560000  32.2680000  13.2370000  13.4210000  32.8270000  13.2580000
  13.1360000  30.9770000  14.3000000  13.1280000  31.5440000  15.2330000
  14.1490000  30.5880000  14.1780000  12.1830000  29.8120000  14.4490000
  11.7440000  29.1580000  13.5190000  11.9200000  29.5450000  15.7460000
  11.2790000  28.2830000  16.0960000  10.6070000  27.9420000  15.3040000
  10.6790000  28.4450000  16.9950000  12.3570000  27.2100000  16.4130000
  11.8730000  26.2540000  16.6310000  13.2050000  27.6260000  17.6320000
  13.5540000  28.6550000  17.5160000  14.0780000  26.9720000  17.6920000
  12.4130000  27.5150000  18.8470000  12.9250000  26.6660000  20.1240000
  13.9640000  27.6850000  20.8010000  13.4840000  28.7760000  21.6080000
  13.1210000  28.3770000  22.5580000  12.6520000  29.2710000  21.1010000
  14.6320000  29.7790000  21.8650000  15.4450000  29.2680000  22.3830000
  14.2580000  30.5670000  22.5190000  15.2570000  30.4810000  20.6810000
  16.1540000  29.5620000  19.9200000  16.9030000  29.1660000  20.6080000
  16.6390000  30.1310000  19.1260000  15.5530000  28.7500000  19.5090000
  14.2220000  31.0360000  19.7550000  13.5770000  31.7100000  20.3210000
  13.6480000  30.2060000  19.3400000  14.7300000  31.5790000  18.9560000
  16.0830000  31.6160000  21.1850000  15.4370000  32.3240000  21.7060000
  16.5670000  32.0980000  20.3350000  16.8420000  31.2190000  21.8610000
  11.7740000  26.4700000  21.0480000  13.6780000  25.4720000  19.6520000
  13.2810000  27.0450000  15.3020000  12.8620000  26.3780000  14.2080000
  11.7430000  25.9180000  14.0730000  13.9670000  26.2780000  13.1800000
  14.5630000  27.1920000  13.2370000  14.6280000  25.4520000  13.4510000
  13.4750000  26.1120000  11.7280000  12.7380000  26.8850000  11.5000000
  14.3280000  26.2840000  11.0690000  12.8880000  24.7230000  11.4080000
  13.5720000  23.9480000  11.7620000  11.9350000  24.5880000  11.9230000
  12.6670000  24.5460000   9.8970000  12.0120000  25.3390000   9.5310000
  13.6300000  24.6600000   9.3940000  12.0490000  23.1790000   9.5440000
  12.6420000  22.3770000   9.9900000  11.0480000  23.1230000   9.9780000
  11.9480000  22.9530000   8.0230000  11.3100000  22.0870000   7.8360000
  11.4650000  23.8160000   7.5610000  13.3200000  22.7100000   7.3640000
  14.0080000  23.5200000   7.6180000  13.7340000  21.7860000   7.7710000
  13.1830000  22.5800000   5.8630000  12.3730000  21.9380000   5.5270000
  13.9290000  23.2090000   4.9620000  13.7250000  23.0520000   3.9060000
  15.1200000  24.0960000   5.2710000  14.7780000  25.0480000   5.6820000
  15.7580000  23.6220000   6.0200000  15.9590000  24.3790000   4.0080000
  16.8780000  24.8960000   4.2920000  16.2470000  23.4320000   3.5470000
  15.1930000  25.2370000   2.9850000  14.2190000  24.7830000   2.7910000
  15.0150000  26.2260000   3.4140000  15.9290000  25.3890000   1.6440000
  16.8750000  25.9120000   1.7960000  16.1560000  24.3950000   1.2560000
  15.0650000  26.1480000   0.6210000  14.0910000  25.6600000   0.5560000
  14.9000000  27.1670000   0.9790000  15.6850000  26.1890000  -0.7860000
  16.6110000  26.7690000  -0.7650000  15.9420000  25.1720000  -1.0900000
  14.7250000  26.7770000  -1.8360000  15.1700000  26.6580000  -2.8260000
  13.7950000  26.2040000  -1.8350000  14.4090000  28.2650000  -1.6090000
  13.7720000  28.6430000  -2.4120000  15.3310000  28.8490000  -1.5980000
  13.8900000  28.4130000  -0.6590000  31.5140000  31.3580000   0.7560000
  32.2600000  30.8620000   0.1310000  30.9040000  32.0020000   0.1180000
  30.8730000  30.5890000   1.1920000  32.2090000  32.1780000   1.8580000
  32.9570000  32.8240000   1.3940000  32.7400000  31.4910000   2.5190000
  31.2690000  33.0610000   2.7030000  30.9350000  33.9130000   2.1070000
  31.8470000  33.4640000   3.5380000  30.0340000  32.3060000   3.2300000
  30.3510000  31.3690000   3.6930000  29.3930000  32.0480000   2.3840000
  29.1910000  33.1050000   4.2400000  28.2670000  32.5510000   4.4190000
  28.9130000  34.0700000   3.8120000  29.9300000  33.3200000   5.5760000
  30.7810000  33.9850000   5.4190000  30.3260000  32.3620000   5.9180000
  29.0540000  33.8970000   6.7000000  28.6920000  34.8830000   6.4020000
  29.6810000  34.0320000   7.5840000  27.8510000  33.0040000   7.0580000
  28.1270000  31.9540000   6.9400000  27.0350000  33.2070000   6.3620000
  27.3730000  33.2170000   8.5050000  27.2820000  34.2860000   8.7110000
  28.1290000  32.8160000   9.1830000  26.0200000  32.5310000   8.7750000
  26.0140000  31.5470000   8.3020000  25.2260000  33.1170000   8.3080000
  25.7120000  32.3430000  10.2730000  26.4000000  31.5910000  10.6670000
  24.7020000  31.9390000  10.3710000  25.8400000  33.6330000  11.1100000
  25.2510000  34.4250000  10.6430000  26.8820000  33.9600000  11.0970000
  25.3890000  33.4850000  12.5800000  24.2990000  33.4360000  12.6210000
  25.6740000  34.3910000  13.1190000  25.9770000  32.2590000  13.3090000
  27.0670000  32.3340000  13.3190000  25.7130000  31.3450000  12.7730000
  25.4520000  32.1400000  14.7540000  24.3760000  31.9500000  14.7460000
  25.6150000  33.0830000  15.2810000  26.1260000  31.0380000  15.5390000
  26.7200000  30.0970000  15.0370000  25.9900000  31.2310000  16.8670000
  26.8370000  30.4550000  17.7700000  26.9870000  29.4450000  17.3810000
  26.3210000  30.3620000  18.7290000  28.2140000  31.1430000  18.0130000
  28.9320000  30.3420000  18.2070000  28.2260000  32.1000000  19.2340000
  29.0700000  32.7900000  19.1570000  28.3620000  31.4990000  20.1380000
  26.9930000  32.8550000  19.3820000  26.7840000  33.8820000  20.6150000
  26.6440000  35.3110000  19.8940000  27.7170000  35.8720000  19.1150000
  28.6540000  35.3520000  19.3340000  27.8410000  36.9240000  19.3850000
  27.3750000  35.7370000  17.6100000  27.2110000  34.6840000  17.3780000
  28.2290000  36.0900000  17.0300000  26.1750000  36.4910000  17.0770000
  24.8930000  35.9420000  17.6130000  24.8540000  34.8720000  17.4020000
  24.0610000  36.4680000  17.1440000  24.8800000  36.1050000  18.6920000
  26.2520000  37.9450000  17.4100000  27.1940000  38.3450000  17.0300000
  26.2030000  38.0570000  18.4940000  25.4080000  38.4550000  16.9420000
  26.1410000  36.3610000  15.5880000  27.0450000  36.8120000  15.1760000
  25.2610000  36.8880000  15.2150000  26.0880000  35.3040000  15.3250000
  25.4840000  33.5630000  21.2660000  28.0120000  33.9040000  21.4590000
  28.6350000  31.8670000  16.8200000  29.9460000  32.0310000  16.5760000
  30.8360000  31.6660000  17.3230000  30.1910000  32.7260000  15.2630000
  31.2610000  32.7080000  15.0470000  29.6730000  32.1650000  14.4820000
  29.6890000  34.1830000  15.2820000  28.6090000  34.1930000  15.4420000
  30.1500000  34.7080000  16.1220000  30.0130000  34.9520000  13.9860000
  29.7080000  35.9910000  14.1270000  31.0930000  34.9520000  13.8300000
  29.3150000  34.3720000  12.7370000  29.6230000  33.3330000  12.6020000
  28.2350000  34.3720000  12.8980000  29.6380000  35.1380000  11.4390000
  30.7220000  35.1940000  11.3210000  29.2580000  34.5660000  10.5890000
  29.0280000  36.5550000  11.3960000  27.9440000  36.4740000  11.2920000
  29.2200000  37.0700000  12.3400000  29.5860000  37.4420000  10.2670000
  29.1020000  38.4200000  10.3170000  30.6500000  37.6130000  10.4480000
  29.4130000  36.8350000   8.8910000  30.1810000  36.1240000   8.5970000
  28.4870000  37.1930000   8.0090000  28.4930000  36.7510000   7.0160000
  27.3180000  38.1090000   8.2930000  26.9440000  37.9580000   9.3070000
  27.6560000  39.1440000   8.2140000  26.1740000  37.8970000   7.2830000
  25.4000000  38.6450000   7.4690000  26.5600000  38.0760000   6.2770000
  25.5430000  36.4910000   7.3580000  26.3060000  35.7330000   7.1700000
  25.1740000  36.3270000   8.3730000  24.3710000  36.2910000   6.3750000
  23.9240000  35.3120000   6.5600000  23.6040000  37.0380000   6.5890000
  24.7440000  36.3830000   4.8810000  23.8290000  36.2810000   4.2940000
  25.1500000  37.3740000   4.6670000  25.7430000  35.2950000   4.4340000
  26.6940000  35.4300000   4.9540000  25.3520000  34.3170000   4.7220000
  26.0010000  35.2900000   2.9140000  26.6310000  34.4330000   2.6680000
  25.0550000  35.1570000   2.3850000  26.6900000  36.5690000   2.4110000
  26.8810000  36.4970000   1.3380000  27.6450000  36.7080000   2.9230000
  26.0660000  37.4480000   2.5860000   0.4010000  40.5220000   0.6110000
  -0.0520000  40.3470000  -0.3670000   1.4820000  40.4060000   0.5090000
   0.1860000  41.5480000   0.9190000  -0.1340000  39.5250000   1.6480000
   0.0240000  38.5060000   1.2890000  -1.2100000  39.6690000   1.7690000
   0.5740000  39.7130000   3.0000000   0.4070000  40.7350000   3.3480000
   1.6500000  39.5840000   2.8680000   0.0740000  38.7270000   4.0690000
   0.3040000  37.7050000   3.7620000  -1.0110000  38.8110000   4.1560000
   0.7180000  39.0170000   5.4360000   0.5260000  40.0580000   5.7040000
   1.8000000  38.8890000   5.3680000   0.1630000  38.1040000   6.5440000
   0.4440000  37.0690000   6.3400000  -0.9280000  38.1580000   6.5360000
   0.6740000  38.5180000   7.9350000   0.4350000  39.5720000   8.0930000
   1.7600000  38.4160000   7.9740000   0.0310000  37.6700000   9.0480000
   0.3040000  36.6230000   8.9010000  -1.0550000  37.7340000   8.9600000
   0.4340000  38.0940000  10.4730000   1.5030000  37.9290000  10.6210000
  -0.0940000  37.4490000  11.1790000   0.0970000  39.5660000  10.7840000
  -0.8880000  39.7990000  10.3730000   0.8190000  40.2210000  10.2930000
   0.0800000  39.8570000  12.2960000   1.0630000  39.6480000  12.7240000
  -0.6320000  39.1760000  12.7660000  -0.3120000  41.3180000  12.5940000
  -1.1920000  41.5850000  12.0050000   0.4980000  41.9740000  12.2680000
  -0.6200000  41.5990000  14.0790000  -0.7840000  42.6710000  14.2000000
   0.2470000  41.3320000  14.6870000  -1.8630000  40.8430000  14.5890000
  -1.6760000  39.7680000  14.5640000  -2.7070000  41.0480000  13.9270000
  -2.2490000  41.2380000  16.0240000  -2.5540000  42.2860000  16.0580000
  -1.3900000  41.1170000  16.6870000  -3.3830000  40.3760000  16.5180000
  -4.5440000  40.5200000  16.1690000  -2.9690000  39.4330000  17.3920000
  -3.8620000  38.3200000  17.6990000  -4.9000000  38.6610000  17.7260000
  -3.6120000  37.9540000  18.6980000  -3.7150000  37.1350000  16.6940000
  -4.6270000  36.5390000  16.7780000  -2.5070000  36.2130000  17.0100000
  -2.4340000  35.4160000  16.2670000  -2.6770000  35.7530000  17.9870000
  -1.2520000  36.9460000  17.0520000  -0.0140000  36.4260000  17.9430000
  -0.5310000  36.7180000  19.4330000   0.2860000  36.3810000  20.5640000
   1.2910000  36.7890000  20.4300000   0.3560000  35.2920000  20.6370000
  -0.3700000  36.9530000  21.8420000   0.2190000  36.6360000  22.7040000
  -1.3730000  36.5370000  21.9460000  -0.5160000  38.4530000  21.9650000
   0.7780000  39.1500000  21.6970000   1.5370000  38.7500000  22.3710000
   0.6400000  40.2180000  21.8710000   1.0550000  38.9720000  20.6570000
  -1.5590000  38.9870000  21.0380000  -2.5020000  38.4800000  21.2480000
  -1.2440000  38.7850000  20.0130000  -1.6550000  40.0610000  21.1990000
  -0.9390000  38.7740000  23.3600000  -1.8880000  38.2740000  23.5600000
  -1.0550000  39.8550000  23.4510000  -0.1720000  38.4180000  24.0500000
   0.1260000  34.9530000  17.7730000   1.1630000  37.2990000  17.6790000
  -3.5800000  37.6430000  15.3340000  -4.0990000  36.9570000  14.3020000
  -4.8350000  35.9930000  14.4210000  -3.6600000  37.5220000  12.9760000
  -2.5950000  37.7560000  13.0440000  -3.7820000  36.7670000  12.1960000
  -4.4480000  38.7940000  12.6070000  -5.4720000  38.5310000  12.3340000
  -4.5000000  39.4570000  13.4740000  -3.7720000  39.5450000  11.4480000
  -2.7520000  39.7960000  11.7460000  -3.7070000  38.8920000  10.5760000
  -4.5110000  40.8420000  11.0770000  -5.4870000  40.5960000  10.6540000
  -4.6910000  41.4210000  11.9850000  -3.7190000  41.7250000  10.0920000
  -4.2980000  42.6340000   9.9130000  -2.7920000  42.0450000  10.5710000
  -3.3660000  41.0650000   8.7390000  -2.8230000  41.7930000   8.1320000
  -2.6810000  40.2320000   8.9100000  -4.5740000  40.5530000   7.9290000
  -4.2140000  40.1110000   6.9980000  -5.0610000  39.7600000   8.5010000
  -5.5730000  41.6600000   7.6680000  -5.7440000  42.3230000   8.5130000
  -6.2140000  41.9160000   6.5340000  -6.8890000  42.7680000   6.5120000
  -6.1490000  41.1300000   5.2400000  -5.5520000  40.2230000   5.3530000
  -7.1590000  40.8230000   4.9610000  -5.5690000  42.0050000   4.1130000
  -6.0840000  42.9680000   4.1010000  -4.5200000  42.2110000   4.3370000
  -5.6800000  41.3870000   2.7050000  -6.7340000  41.2320000   2.4670000
  -5.2860000  42.1040000   1.9820000  -4.9150000  40.0590000   2.5640000
  -3.8820000  40.2100000   2.8840000  -5.3590000  39.3160000   3.2300000
  -4.9100000  39.4990000   1.1300000  -4.5230000  40.2630000   0.4510000
  -4.2190000  38.6540000   1.0930000  -6.2930000  39.0260000   0.6400000
  -6.6680000  38.2590000   1.3210000  -6.9980000  39.8600000   0.6620000
  -6.2390000  38.4540000  -0.7910000  -5.8910000  39.2280000  -1.4790000
  -5.5220000  37.6320000  -0.8300000  -7.6070000  37.9460000  -1.2690000
  -7.5590000  37.6430000  -2.3170000  -8.3630000  38.7290000  -1.1720000
  -7.9140000  37.0820000  -0.6750000  -2.3890000  46.6470000  -2.9760000
  -1.7260000  45.9040000  -3.4250000  -1.7850000  47.3540000  -2.4030000
  -2.8920000  47.1860000  -3.7810000  -3.4180000  45.9580000  -2.0700000
  -2.8860000  45.3970000  -1.2990000  -3.9890000  45.2410000  -2.6630000
  -4.3800000  46.9700000  -1.4140000  -4.8010000  47.6130000  -2.1890000
  -3.8180000  47.6180000  -0.7380000  -5.5420000  46.2970000  -0.6550000
  -6.1290000  45.7160000  -1.3690000  -6.2030000  47.0700000  -0.2570000
  -5.1070000  45.3750000   0.5000000  -4.3800000  44.6470000   0.1350000
  -5.9750000  44.8100000   0.8450000  -4.5180000  46.1490000   1.6940000
  -5.3130000  46.7520000   2.1390000  -3.7410000  46.8380000   1.3560000
  -3.9270000  45.2260000   2.7740000  -4.6440000  44.4390000   3.0160000
  -3.7850000  45.8280000   3.6740000  -2.5740000  44.6070000   2.3680000
  -1.8710000  45.4130000   2.1490000  -2.7030000  44.0410000   1.4430000
  -1.9370000  43.6660000   3.4130000  -1.0110000  43.2850000   2.9770000
  -2.5780000  42.7970000   3.5740000  -1.5800000  44.3140000   4.7700000
  -1.2420000  45.3400000   4.6050000  -0.7310000  43.7670000   5.1840000
  -2.7070000  44.2990000   5.8260000  -3.0470000  43.2730000   5.9810000
  -3.5670000  44.8770000   5.4830000  -2.2250000  44.8770000   7.1690000
  -1.7610000  45.8510000   7.0020000  -1.4600000  44.2170000   7.5830000
  -3.3680000  45.0390000   8.1880000  -3.9120000  44.0970000   8.2740000
  -4.0750000  45.7870000   7.8220000  -2.8350000  45.4540000   9.5730000
  -2.2460000  46.3680000   9.4780000  -2.1670000  44.6710000   9.9370000
  -3.9610000  45.6800000  10.6030000  -4.6260000  44.8130000  10.6120000
  -4.5650000  46.5440000  10.3190000  -3.4400000  45.8870000  12.0090000
  -2.2860000  46.1540000  12.2970000  -4.4160000  45.7210000  12.9190000
  -4.0680000  45.7380000  14.3350000  -3.7480000  46.7430000  14.6210000
  -3.2590000  45.0290000  14.5290000  -5.3130000  45.3260000  15.1500000
  -6.1190000  46.0160000  14.8850000  -5.0620000  45.3980000  16.6770000
  -6.0010000  45.2250000  17.2080000  -4.7110000  46.4010000  16.9300000
  -4.0750000  44.4330000  17.1280000  -3.6810000  44.3390000  18.6930000
  -4.9740000  43.6370000  19.3510000  -5.2410000  42.2320000  19.1720000
  -5.3630000  41.7640000  20.1530000  -4.3950000  41.7510000  18.6750000
  -6.5150000  42.0480000  18.3130000  -6.6300000  40.9860000  18.0920000
  -6.3860000  42.5780000  17.3680000  -7.8410000  42.4930000  18.8870000
  -7.9440000  43.9810000  18.9630000  -7.1320000  44.3520000  19.5900000
  -8.9090000  44.2420000  19.3990000  -7.8640000  44.3840000  17.9520000
  -8.9380000  42.0070000  18.0010000  -8.9090000  40.9170000  17.9850000
  -8.7910000  42.4170000  17.0010000  -9.8900000  42.3460000  18.4130000
  -8.0660000  41.9230000  20.2480000  -8.0110000  40.8350000  20.1780000
  -9.0570000  42.2240000  20.5920000  -7.3000000  42.3080000  20.9220000
  -2.5110000  43.4310000  18.8400000  -3.5850000  45.7190000  19.2460000
  -5.6770000  43.9790000  14.7370000  -6.9590000  43.6060000  14.8480000
  -7.7730000  44.1620000  15.5650000  -7.3030000  42.4410000  13.9590000
  -6.4940000  41.7080000  13.9780000  -8.2050000  41.9610000  14.3460000
  -7.5430000  42.9330000  12.5180000  -8.1790000  43.8200000  12.5510000
  -6.5900000  43.2300000  12.0740000  -8.2190000  41.8670000  11.6350000
  -7.6390000  40.9430000  11.6770000  -9.2080000  41.6460000  12.0420000
  -8.3670000  42.2880000  10.1600000  -7.3740000  42.3390000   9.7090000
  -8.9220000  41.5100000   9.6320000  -9.0720000  43.6440000   9.9570000
 -10.0060000  43.6570000  10.5230000  -8.4380000  44.4420000  10.3490000
  -9.3810000  43.9200000   8.4720000  -8.4680000  43.8230000   7.8820000
 -10.0780000  43.1600000   8.1140000  -9.9980000  45.3120000   8.2250000
 -10.4380000  45.3290000   7.2260000 -10.8200000  45.4600000   8.9290000
  -8.9730000  46.4170000   8.4060000  -8.5330000  46.4640000   9.3990000
  -8.5660000  47.2900000   7.4860000  -7.8100000  48.0210000   7.7610000
  -9.0520000  47.4060000   6.0520000  -9.9170000  46.7700000   5.8540000
  -9.3820000  48.4320000   5.8790000  -7.9330000  47.0940000   5.0370000
  -8.3150000  47.2610000   4.0280000  -7.1190000  47.8070000   5.1890000
  -7.3570000  45.6660000   5.1290000  -6.5200000  45.5760000   4.4330000
  -6.9490000  45.5080000   6.1300000  -8.3780000  44.5510000   4.8270000
  -7.9260000  43.5870000   5.0730000  -9.2490000  44.6540000   5.4770000
  -8.8420000  44.5010000   3.3610000  -9.4000000  45.4070000   3.1190000
  -7.9670000  44.4590000   2.7080000  -9.7310000  43.2660000   3.1200000
  -9.1500000  42.3600000   3.3030000 -10.5470000  43.2770000   3.8450000
 -10.3360000  43.2020000   1.7060000 -11.0110000  42.3460000   1.6500000
 -10.9330000  44.1000000   1.5320000  -9.2840000  43.0690000   0.5940000
  -8.6220000  43.9370000   0.5740000  -9.7790000  42.9950000  -0.3770000
  -8.6820000  42.1710000   0.7440000 -41.1290000 -27.4130000   0.6270000
 -40.8200000 -27.0690000  -0.3620000 -40.9810000 -28.4940000   0.6750000
 -42.1930000 -27.2010000   0.7520000 -40.3100000 -26.7130000   1.7240000
 -39.2560000 -26.9670000   1.5990000 -40.6230000 -27.0870000   2.7010000
 -40.4780000 -25.1830000   1.6830000 -41.5320000 -24.9320000   1.8170000
 -40.1760000 -24.8110000   0.7010000 -39.6470000 -24.4880000   2.7760000
 -38.5970000 -24.7660000   2.6580000 -39.9770000 -24.8550000   3.7500000
 -39.7730000 -22.9510000   2.7280000 -40.8100000 -22.6670000   2.9190000
 -39.5240000 -22.6080000   1.7220000 -38.8520000 -22.2280000   3.7310000
 -38.9550000 -21.1500000   3.5950000 -37.8150000 -22.4840000   3.5040000
 -39.1460000 -22.5820000   5.2010000 -39.0580000 -23.6610000   5.3380000
 -40.1740000 -22.3000000   5.4360000 -38.1770000 -21.8900000   6.1790000
 -38.3380000 -20.8100000   6.1670000 -37.1530000 -22.0690000   5.8430000
 -38.3080000 -22.4310000   7.6140000 -37.4730000 -22.0560000   8.2090000
 -38.2210000 -23.5190000   7.5810000 -39.6340000 -22.0500000   8.2970000
 -40.4700000 -22.2820000   7.6340000 -39.6430000 -20.9710000   8.4660000
 -39.8810000 -22.7670000   9.6370000 -40.0600000 -23.8280000   9.4470000
 -40.7950000 -22.3640000  10.0780000 -38.7250000 -22.6300000  10.6450000
 -38.4220000 -21.5830000  10.7160000 -37.8650000 -23.2010000  10.2890000
 -39.1310000 -23.1320000  12.0420000 -39.6120000 -24.1080000  11.9490000
 -39.8660000 -22.4470000  12.4700000 -37.9310000 -23.2630000  12.9960000
 -37.3860000 -22.3180000  13.0480000 -37.2470000 -24.0130000  12.5940000
 -38.3720000 -23.6820000  14.4090000 -39.1350000 -24.4600000  14.3440000
 -38.8080000 -22.8290000  14.9340000 -37.2100000 -24.2280000  15.2000000
 -36.9500000 -25.4180000  15.2530000 -36.5100000 -23.2730000  15.8400000
 -35.3650000 -23.7210000  16.6230000 -34.7150000 -24.3100000  15.9720000
 -35.7110000 -24.3660000  17.4350000 -34.5260000 -22.5590000  17.2180000
 -33.5690000 -22.9710000  17.5500000 -35.1590000 -21.9200000  18.4770000
 -34.5540000 -21.0670000  18.7960000 -35.1510000 -22.6700000  19.2720000
 -36.5290000 -21.4860000  18.2660000 -37.5700000 -21.3620000  19.4920000
 -37.9460000 -22.8980000  19.7780000 -38.7170000 -23.6480000  18.8230000
 -38.1530000 -23.7040000  17.8880000 -39.6670000 -23.1440000  18.6270000
 -38.9500000 -25.0720000  19.3730000 -37.9930000 -25.4980000  19.6780000
 -39.3620000 -25.6950000  18.5780000 -39.8860000 -25.2370000  20.5440000
 -41.2540000 -24.7420000  20.2040000 -41.2020000 -23.6650000  20.0340000
 -41.9210000 -24.9580000  21.0400000 -41.5920000 -25.2570000  19.3040000
 -39.9880000 -26.6850000  20.8700000 -38.9970000 -27.0560000  21.1380000
 -40.3560000 -27.2080000  19.9860000 -40.6810000 -26.8140000  21.7030000
 -39.3940000 -24.5330000  21.7640000 -38.3990000 -24.9100000  22.0020000
 -40.0860000 -24.7240000  22.5860000 -39.3440000 -23.4650000  21.5470000
 -36.8510000 -20.8350000  20.6850000 -38.7920000 -20.6510000  19.0230000
 -34.2540000 -21.5330000  16.2190000 -33.3010000 -21.7810000  15.2990000
 -32.5660000 -22.7530000  15.3200000 -33.2100000 -20.6790000  14.2640000
 -33.8180000 -19.8350000  14.5930000 -32.1810000 -20.3170000  14.2150000
 -33.7040000 -21.1290000  12.8730000 -34.6780000 -21.6090000  12.9880000
 -33.8560000 -20.2440000  12.2510000 -32.7430000 -22.0810000  12.1330000
 -31.8220000 -21.5520000  11.8810000 -32.4730000 -22.9110000  12.7890000
 -33.3750000 -22.6500000  10.8500000 -34.3950000 -22.9690000  11.0740000
 -33.4490000 -21.8630000  10.0970000 -32.6030000 -23.8620000  10.2920000
 -32.4890000 -24.6020000  11.0870000 -33.2060000 -24.3370000   9.5160000
 -31.2090000 -23.5290000   9.7190000 -30.6200000 -22.9960000  10.4690000
 -30.6840000 -24.4650000   9.5150000 -31.2510000 -22.7070000   8.4160000
 -31.7270000 -21.7410000   8.5950000 -30.2240000 -22.5010000   8.1080000
 -31.9440000 -23.4930000   7.3210000 -31.4720000 -24.4430000   7.0830000
 -33.0450000 -23.1390000   6.6660000 -33.4450000 -23.8060000   5.9060000
 -33.8400000 -21.8670000   6.8660000 -34.9040000 -22.0790000   6.7390000
 -33.7220000 -21.4860000   7.8820000 -33.4030000 -20.7780000   5.8690000
 -33.9850000 -19.8740000   6.0600000 -32.3590000 -20.5270000   6.0640000
 -33.5530000 -21.1750000   4.3840000 -33.1270000 -20.3770000   3.7720000
 -32.9620000 -22.0700000   4.1790000 -35.0240000 -21.4040000   3.9780000
 -35.3960000 -22.3280000   4.4270000 -35.6220000 -20.5890000   4.3920000
 -35.2670000 -21.4300000   2.4560000 -36.2610000 -21.0200000   2.2670000
 -34.5590000 -20.7650000   1.9570000 -35.2160000 -22.8270000   1.8050000
 -35.9980000 -23.4570000   2.2340000 -35.4480000 -22.7080000   0.7450000
 -33.8630000 -23.5460000   1.9330000 -33.0630000 -22.8600000   1.6460000
 -33.6950000 -23.8350000   2.9730000 -33.8000000 -24.8010000   1.0450000
 -32.8160000 -25.2680000   1.1170000 -33.9780000 -24.5410000  -0.0000000
 -34.5550000 -25.5260000   1.3570000 -23.5580000  27.4720000   1.2310000
 -23.7580000  26.7680000   0.4210000 -22.4900000  27.4370000   1.4570000
 -23.8110000  28.4770000   0.8870000 -24.3960000  27.0980000   2.4650000
 -24.1340000  26.0870000   2.7850000 -25.4490000  27.0740000   2.1770000
 -24.2340000  28.0680000   3.6510000 -24.8880000  27.7250000   4.4550000
 -24.5830000  29.0590000   3.3530000 -22.7870000  28.1800000   4.1750000
 -22.1470000  28.5760000   3.3830000 -22.4110000  27.1860000   4.4260000
 -22.6440000  29.0900000   5.4100000 -23.0520000  30.0780000   5.1850000
 -21.5780000  29.2180000   5.6130000 -23.3340000  28.5190000   6.6660000
 -22.9530000  27.5150000   6.8610000 -24.4050000  28.4190000   6.4770000
 -23.1560000  29.3880000   7.9270000 -23.6780000  28.9010000   8.7540000
 -23.6460000  30.3500000   7.7680000 -21.6950000  29.6440000   8.3510000
 -21.7050000  30.1560000   9.3150000 -21.2200000  30.3200000   7.6380000
 -20.8530000  28.3580000   8.4680000 -20.6680000  27.9520000   7.4720000
 -21.4190000  27.6130000   9.0300000 -19.5070000  28.6140000   9.1730000
 -19.7040000  28.8830000  10.2130000 -19.0140000  29.4690000   8.7070000
 -18.5410000  27.4120000   9.1430000 -17.7120000  27.6200000   9.8240000
 -18.1180000  27.3170000   8.1410000 -19.2070000  26.0800000   9.5370000
 -19.8610000  25.7580000   8.7250000 -19.8290000  26.2430000  10.4200000
 -18.1910000  24.9640000   9.8400000 -17.6250000  25.2270000  10.7360000
 -17.4730000  24.9020000   9.0190000 -18.8390000  23.5740000  10.0170000
 -18.0620000  22.8530000  10.2820000 -19.2300000  23.2620000   9.0460000
 -19.9930000  23.4800000  11.0420000 -20.7800000  24.1950000  10.7940000
 -20.4430000  22.4880000  10.9640000 -19.5950000  23.6860000  12.4880000
 -18.4840000  24.0000000  12.8810000 -20.6300000  23.4320000  13.3170000
 -20.4580000  23.6380000  14.7500000 -19.5090000  23.2080000  15.0800000
 -21.2680000  23.1150000  15.2640000 -20.5240000  25.1440000  15.1270000
 -19.7160000  25.6900000  14.6350000 -20.3400000  25.3270000  16.6550000
 -19.2840000  25.2570000  16.9280000 -20.8830000  24.5290000  17.1680000
 -20.8740000  26.6080000  17.0910000 -21.5390000  26.7740000  18.5540000
 -22.7540000  25.7190000  18.5070000 -23.9100000  25.9570000  17.6850000
 -23.5820000  26.3560000  16.7220000 -24.5620000  26.6920000  18.1630000
 -24.6400000  24.6130000  17.4460000 -23.9300000  23.8930000  17.0360000
 -25.4310000  24.7700000  16.7110000 -25.3020000  23.9320000  18.6210000
 -26.3000000  24.8300000  19.2730000 -25.7770000  25.7010000  19.6700000
 -26.7870000  24.2800000  20.0800000 -27.0350000  25.1320000  18.5250000
 -26.0180000  22.7200000  18.1300000 -25.2920000  22.0500000  17.6680000
 -26.7780000  23.0270000  17.4100000 -26.4870000  22.2270000  18.9820000
 -24.3120000  23.4830000  19.6410000 -23.6140000  22.7970000  19.1600000
 -24.8410000  22.9760000  20.4500000 -23.7800000  24.3580000  20.0170000
 -20.5650000  26.3130000  19.5830000 -22.1060000  28.1470000  18.6670000
 -21.8150000  25.6990000  14.7440000 -21.9200000  26.3230000  13.5540000
 -21.0410000  26.3450000  12.7100000 -23.2570000  26.9980000  13.3750000
 -23.4070000  27.7110000  14.1890000 -23.2340000  27.5570000  12.4380000
 -24.4150000  25.9810000  13.3630000 -24.2070000  25.1990000  12.6300000
 -24.4680000  25.4910000  14.3370000 -25.7830000  26.6300000  13.0610000
 -26.5550000  25.8600000  13.1190000 -26.0100000  27.3550000  13.8450000
 -25.8730000  27.3410000  11.6920000 -26.8970000  27.6870000  11.5410000
 -25.2430000  28.2330000  11.7100000 -25.4550000  26.4680000  10.4910000
 -25.4640000  27.0820000   9.5880000 -24.4240000  26.1330000  10.6260000
 -26.3800000  25.2540000  10.2700000 -26.5670000  24.7380000  11.2140000
 -27.3450000  25.6100000   9.9020000 -25.8010000  24.2370000   9.2710000
 -26.6000000  23.5470000   8.9940000 -25.4910000  24.7480000   8.3570000
 -24.6690000  23.4450000   9.8980000 -24.9650000  22.8180000  10.7360000
 -23.4050000  23.4190000   9.4900000 -22.6940000  22.7810000  10.0090000
 -22.8170000  24.2480000   8.3680000 -23.3560000  25.1910000   8.2570000
 -21.7830000  24.5010000   8.6110000 -22.8500000  23.4720000   7.0400000
 -22.3220000  22.5240000   7.1620000 -23.8870000  23.2390000   6.7900000
 -22.2130000  24.2630000   5.8830000 -22.7070000  25.2330000   5.7950000
 -21.1600000  24.4470000   6.1060000 -22.3340000  23.5100000   4.5460000
 -21.8650000  22.5280000   4.6390000 -23.3910000  23.3470000   4.3260000
 -21.6850000  24.2720000   3.3770000 -22.1080000  25.2770000   3.3160000
 -20.6150000  24.3830000   3.5640000 -21.9100000  23.5500000   2.0380000
 -21.5150000  22.5340000   2.1050000 -22.9830000  23.4750000   1.8510000
 -21.2460000  24.2740000   0.8540000 -21.6260000  25.2960000   0.7900000
 -20.1690000  24.3360000   1.0240000 -21.5120000  23.5510000  -0.4760000
 -20.9740000  24.0420000  -1.2900000 -22.5790000  23.5630000  -0.7080000
 -21.1800000  22.5120000  -0.4250000   6.5980000  46.3680000   1.6940000
   5.6820000  46.9250000   1.4870000   6.6640000  45.5420000   0.9820000
   7.4480000  47.0350000   1.5390000   6.5790000  45.8530000   3.1410000
   5.6790000  45.2540000   3.3000000   6.5100000  46.7100000   3.8140000
   7.8260000  45.0310000   3.5210000   7.7710000  44.7810000   4.5820000
   8.7130000  45.6560000   3.3960000   8.0260000  43.7260000   2.7210000
   8.8910000  43.2060000   3.1380000   8.2760000  43.9720000   1.6870000
   6.8240000  42.7590000   2.7280000   7.1110000  41.8510000   2.1940000
   5.9980000  43.2100000   2.1740000   6.3350000  42.3770000   4.1370000
   5.9820000  43.2730000   4.6510000   7.1800000  41.9840000   4.7080000
   5.2020000  41.3280000   4.1120000   5.6130000  40.3690000   3.7900000
   4.4520000  41.6180000   3.3740000   4.4950000  41.1440000   5.4700000
   3.8460000  40.2670000   5.4130000   3.8510000  42.0060000   5.6590000
   5.4720000  40.9830000   6.6480000   6.0810000  41.8850000   6.7380000
   6.1420000  40.1470000   6.4330000   4.7660000  40.7390000   7.9940000
   4.3100000  39.7470000   7.9870000   3.9610000  41.4660000   8.1190000
   5.7270000  40.8590000   9.1940000   5.1840000  40.6090000  10.1080000
   6.0490000  41.8990000   9.2830000   6.9650000  39.9490000   9.0710000
   7.5370000  40.2230000   8.1830000   6.6250000  38.9200000   8.9320000
   7.9120000  40.0020000  10.2850000   8.7060000  39.2680000  10.1350000
   7.3650000  39.7090000  11.1840000   8.5480000  41.3850000  10.5090000
   7.7700000  42.1010000  10.7840000   9.0050000  41.7320000   9.5810000
   9.6160000  41.3470000  11.6190000  10.4510000  40.7120000  11.3160000
   9.1880000  40.9210000  12.5290000  10.1290000  42.7310000  11.9240000
  11.0630000  43.2570000  11.3460000   9.4300000  43.3160000  12.9140000
   9.7630000  44.6790000  13.3050000   9.6530000  45.3430000  12.4440000
  10.7980000  44.7110000  13.6530000   8.8220000  45.1540000  14.4410000
   9.1530000  46.1430000  14.7680000   8.8740000  44.1530000  15.6200000
   9.9150000  43.9800000  15.9050000   8.4370000  43.2020000  15.3060000
   8.1620000  44.6650000  16.7760000   6.8820000  43.8930000  17.3800000
   6.5150000  44.7780000  18.6720000   5.9440000  46.0960000  18.5420000
   6.4240000  46.6140000  17.7080000   6.1570000  46.6570000  19.4550000
   4.4130000  46.0210000  18.3180000   4.2130000  45.4600000  17.4040000
   4.0320000  47.0350000  18.1810000   3.5490000  45.3960000  19.3870000
   3.8010000  43.9310000  19.5180000   3.6660000  43.4700000  18.5380000
   3.1010000  43.5140000  20.2430000   4.8290000  43.7900000  19.8560000
   3.7660000  46.0490000  20.7130000   3.5730000  47.1180000  20.6130000
   4.7980000  45.8720000  21.0220000   3.0780000  45.6060000  21.4340000
   2.1180000  45.5770000  19.0070000   1.9060000  46.6450000  18.9320000
   1.4920000  45.1220000  19.7750000   1.9490000  45.0890000  18.0460000
   5.7590000  43.9530000  16.4070000   7.3470000  42.5670000  17.8630000
   7.4770000  45.2150000  13.8990000   6.6270000  46.1730000  14.3130000
   6.8890000  47.0370000  15.1350000   5.3240000  46.1350000  13.5470000
   5.2320000  45.1760000  13.0340000   4.4960000  46.1990000  14.2560000
   5.2280000  47.2900000  12.5240000   4.3140000  47.1660000  11.9400000
   5.1300000  48.2310000  13.0690000   6.4310000  47.4080000  11.5620000
   6.2720000  48.2620000  10.8990000   7.3290000  47.6270000  12.1430000
   6.6920000  46.1530000  10.7090000   6.8010000  45.2790000  11.3550000
   5.8350000  45.9760000  10.0560000   7.9740000  46.3040000   9.8650000
   7.8280000  47.0910000   9.1230000   8.7910000  46.6260000  10.5140000
   8.4040000  44.9980000   9.1660000   9.3220000  45.1860000   8.6060000
   8.6450000  44.2560000   9.9300000   7.3510000  44.4010000   8.2130000
   7.7700000  43.4920000   7.7750000   6.4650000  44.1110000   8.7820000
   7.0030000  45.3710000   7.1040000   7.8480000  45.9210000   6.6970000
   5.7830000  45.6400000   6.6540000   5.6670000  46.3890000   5.8750000
   4.5030000  44.9420000   7.0670000   4.7170000  43.9530000   7.4780000
   4.0020000  45.5230000   7.8440000   3.5380000  44.7830000   5.8750000
   4.0700000  44.2820000   5.0640000   2.7130000  44.1330000   6.1750000
   2.9590000  46.1180000   5.3670000   2.4410000  46.6000000   6.2000000
   3.7690000  46.7870000   5.0680000   1.9630000  45.9860000   4.1950000
   1.2340000  45.2010000   4.4040000   1.4050000  46.9240000   4.1450000
   2.6050000  45.7630000   2.8090000   1.9440000  46.2100000   2.0640000
   3.5510000  46.3060000   2.7520000   2.8200000  44.2870000   2.4110000
   3.4780000  43.7900000   3.1260000   1.8600000  43.7680000   2.4290000
   3.4360000  44.1740000   1.0040000   2.8150000  44.7300000   0.2990000
   4.4250000  44.6370000   1.0020000   3.5600000  42.7260000   0.5070000
   4.0020000  42.7050000  -0.4910000   2.5710000  42.2660000   0.4520000
   4.1870000  42.1320000   1.1760000 -46.0960000   2.8300000  -1.0040000
 -46.3950000   3.4520000  -1.8510000 -45.7450000   3.4850000  -0.2040000
 -46.9750000   2.2870000  -0.6520000 -44.9830000   1.8570000  -1.4300000
 -44.1530000   2.4330000  -1.8460000 -45.3540000   1.2080000  -2.2260000
 -44.4440000   0.9950000  -0.2730000 -44.0580000   1.6530000   0.5080000
 -43.6040000   0.4050000  -0.6430000 -45.5000000   0.0410000   0.3190000
 -45.9540000  -0.5310000  -0.4930000 -46.2970000   0.6160000   0.7950000
 -44.9100000  -0.9480000   1.3420000 -44.0920000  -1.5010000   0.8750000
 -45.6790000  -1.6750000   1.6100000 -44.3940000  -0.2710000   2.6250000
 -45.2210000   0.2380000   3.1250000 -43.6460000   0.4840000   2.3730000
 -43.7660000  -1.2960000   3.5850000 -42.9440000  -1.8070000   3.0800000
 -44.5130000  -2.0500000   3.8420000 -43.2450000  -0.6510000   4.8790000
 -44.0700000  -0.1300000   5.3710000 -42.4820000   0.0910000   4.6360000
 -42.6540000  -1.7090000   5.8290000 -41.8810000  -2.2710000   5.3010000
 -43.4350000  -2.4190000   6.1080000 -42.0410000  -1.1230000   7.1120000
 -41.2000000  -0.4790000   6.8440000 -41.6390000  -1.9490000   7.7020000
 -43.0430000  -0.3180000   7.9640000 -43.9250000  -0.9230000   8.1820000
 -43.3740000   0.5530000   7.3950000 -42.4130000   0.1770000   9.2760000
 -43.0420000   0.9610000   9.7020000 -41.4460000   0.6290000   9.0440000
 -42.2240000  -0.9220000  10.3380000 -41.7770000  -1.8090000   9.8850000
 -43.1970000  -1.2170000  10.7370000 -41.3190000  -0.4300000  11.4820000
 -41.7890000   0.4210000  11.9800000 -40.3770000  -0.0760000  11.0570000
 -41.0200000  -1.5300000  12.5160000 -40.5950000  -2.4080000  12.0240000
 -41.9440000  -1.8380000  13.0100000 -40.0360000  -1.0280000  13.5420000
 -38.8540000  -0.8410000  13.3030000 -40.6110000  -0.8180000  14.7430000
 -39.8810000  -0.0520000  15.7490000 -38.8000000  -0.1290000  15.6060000
 -40.1200000  -0.4810000  16.7250000 -40.3190000   1.4380000  15.7240000
 -39.6470000   1.9930000  16.3830000 -41.7870000   1.5950000  16.1990000
 -42.2840000   0.6230000  16.2500000 -42.3280000   2.2100000  15.4740000
 -41.8750000   2.2580000  17.4950000 -41.5460000   1.5070000  18.8910000
 -42.6530000   0.3410000  18.9310000 -44.0420000   0.6380000  19.1800000
 -44.6550000  -0.1050000  18.6640000 -44.2830000   1.6200000  18.7670000
 -44.3390000   0.6080000  20.7000000 -45.3730000   0.9210000  20.8560000
 -43.6910000   1.3260000  21.2040000 -44.1840000  -0.6970000  21.4440000
 -44.6980000  -0.5150000  22.8340000 -44.1190000   0.2740000  23.3170000
 -44.5810000  -1.4540000  23.3750000 -45.7510000  -0.2360000  22.7850000
 -44.9700000  -1.7910000  20.7980000 -44.5590000  -1.9750000  19.8040000
 -46.0140000  -1.4800000  20.7310000 -44.8860000  -2.6890000  21.4110000
 -42.7530000  -1.1110000  21.5380000 -42.3770000  -1.2800000  20.5280000
 -42.6890000  -2.0270000  22.1280000 -42.1920000  -0.3070000  22.0160000
 -40.2030000   0.8770000  18.7980000 -41.8080000   2.4590000  20.0050000
 -40.2050000   1.9430000  14.3590000 -39.8760000   3.2340000  14.1520000
 -39.6490000   4.0390000  15.0390000 -39.8240000   3.5780000  12.6810000
 -38.9540000   4.2110000  12.4930000 -39.6920000   2.6560000  12.1100000
 -41.1100000   4.3030000  12.2330000 -41.9710000   3.6650000  12.4450000
 -41.2340000   5.2120000  12.8270000 -41.1280000   4.6840000  10.7380000
 -42.0770000   5.1810000  10.5260000 -40.3320000   5.4010000  10.5280000
 -40.9740000   3.4640000   9.8110000 -39.9510000   3.0900000   9.8850000
 -41.6330000   2.6700000  10.1680000 -41.2850000   3.7400000   8.3250000
 -40.7090000   4.6000000   7.9790000 -40.9580000   2.8740000   7.7460000
 -42.7800000   3.9870000   8.0410000 -43.3680000   3.2230000   8.5540000
 -43.0750000   4.9560000   8.4470000 -43.1250000   3.9400000   6.5410000
 -42.7960000   2.9870000   6.1210000 -44.2130000   3.9660000   6.4430000
 -42.5450000   5.1160000   5.7790000 -42.9850000   6.0790000   6.0250000
 -41.6300000   5.0500000   4.8170000 -41.3220000   5.9650000   4.3160000
 -40.8720000   3.8080000   4.3960000 -39.8880000   4.1060000   4.0270000
 -40.7000000   3.1590000   5.2580000 -41.6150000   3.0160000   3.3010000
 -42.5800000   2.6950000   3.6990000 -41.8230000   3.6670000   2.4500000
 -40.8370000   1.7660000   2.8380000 -40.5270000   1.2010000   3.7200000
 -41.5100000   1.1170000   2.2720000 -39.5970000   2.0540000   1.9680000
 -38.9570000   2.7890000   2.4610000 -39.0210000   1.1300000   1.8900000
 -39.9560000   2.5400000   0.5490000 -40.5590000   1.7790000   0.0490000
 -40.5740000   3.4380000   0.6180000 -38.7280000   2.8740000  -0.3230000
 -39.0820000   3.2000000  -1.3040000 -38.2060000   3.7240000   0.1220000
 -37.7130000   1.7280000  -0.5160000 -36.8850000   2.0980000  -1.1250000
 -37.2890000   1.4410000   0.4480000 -38.3060000   0.4860000  -1.2020000
 -37.5310000  -0.2710000  -1.3430000 -38.7110000   0.7490000  -2.1810000
 -39.1040000   0.0500000  -0.5970000  35.7570000  32.3090000   1.0730000
  35.2740000  33.0720000   0.4590000  34.9830000  31.7040000   1.5500000
  36.3440000  31.6620000   0.4180000  36.6630000  32.9690000   2.1250000
  36.0870000  33.6900000   2.7100000  37.4410000  33.5260000   1.5980000
  37.3310000  31.9440000   3.0630000  38.2110000  32.3940000   3.5260000
  37.6930000  31.1080000   2.4610000  36.3880000  31.3990000   4.1550000
  36.7840000  30.4450000   4.5090000  35.4120000  31.1800000   3.7170000
  36.1950000  32.3230000   5.3780000  35.4760000  31.8340000   6.0390000
  35.7480000  33.2690000   5.0670000  37.5070000  32.5990000   6.1490000
  38.0950000  33.3340000   5.5940000  38.1100000  31.6890000   6.1780000
  37.3260000  33.1120000   7.5960000  36.8590000  34.0990000   7.5650000
  38.3170000  33.2490000   8.0350000  36.5000000  32.1930000   8.5250000
  35.4560000  32.2120000   8.2050000  36.5260000  32.6000000   9.5380000
  36.9960000  30.7320000   8.5530000  38.0180000  30.7050000   8.9380000
  37.0220000  30.3470000   7.5320000  36.1110000  29.7860000   9.3880000
  35.0710000  29.8900000   9.0710000  36.1640000  30.0540000  10.4450000
  36.5470000  28.3220000   9.1880000  37.5250000  28.1680000   9.6490000
  36.6680000  28.1380000   8.1190000  35.5490000  27.2800000   9.7290000
  35.8890000  26.2960000   9.4000000  34.5700000  27.4370000   9.2710000
  35.3960000  27.2600000  11.2620000  34.6660000  28.0130000  11.5630000
  36.3510000  27.5150000  11.7270000  34.9560000  25.8610000  11.7440000
  35.7570000  25.1540000  11.5160000  34.0810000  25.5500000  11.1710000
  34.6130000  25.7530000  13.2450000  34.2850000  24.7360000  13.4730000
  33.7730000  26.4140000  13.4700000  35.7610000  26.0910000  14.1680000
  36.9420000  25.9980000  13.8830000  35.3090000  26.5410000  15.3540000
  36.2620000  27.0730000  16.3210000  37.1280000  26.4130000  16.4130000
  35.7590000  27.1250000  17.2900000  36.6950000  28.5000000  15.8970000
  37.2460000  28.4270000  14.9560000  37.6290000  29.1850000  16.9210000
  37.5520000  30.2700000  16.8190000  38.6600000  28.8850000  16.7180000
  37.3150000  28.7970000  18.2830000  38.0620000  29.4700000  19.5460000
  36.9840000  30.5540000  20.0480000  35.8650000  30.1650000  20.8770000
  35.4520000  31.0570000  21.3540000  36.2110000  29.4920000  21.6650000
  34.7800000  29.4670000  20.0190000  34.0830000  28.9530000  20.6810000
  35.2600000  28.7160000  19.3890000  33.9320000  30.3180000  19.1040000
  34.7530000  31.1890000  18.2130000  35.3330000  31.8710000  18.8370000
  34.0880000  31.7440000  17.5490000  35.4290000  30.5500000  17.6430000
  33.1100000  29.4170000  18.2410000  32.5130000  28.7660000  18.8800000
  33.7800000  28.8310000  17.6090000  32.4570000  30.0350000  17.6240000
  33.0080000  31.1800000  19.8990000  32.4110000  30.5460000  20.5560000
  32.3590000  31.7190000  19.2060000  33.6000000  31.8840000  20.4860000
  38.2400000  28.4300000  20.5940000  39.2610000  30.2030000  19.0620000
  35.4950000  29.3100000  15.7390000  35.1830000  29.7820000  14.5140000
  35.9330000  29.7540000  13.5560000  33.7750000  30.3230000  14.4580000
  33.2610000  30.0670000  15.3870000  33.8130000  31.4130000  14.3920000
  32.9910000  29.7380000  13.2630000  33.4590000  30.0650000  12.3310000
  33.0450000  28.6480000  13.2960000  31.5120000  30.1630000  13.2770000
  31.0690000  29.8570000  14.2270000  31.4550000  31.2530000  13.2320000
  30.6710000  29.5570000  12.1340000  30.7140000  28.4680000  12.2000000
  29.6280000  29.8410000  12.2830000  31.0980000  29.9840000  10.7140000
  32.1080000  29.6200000  10.5130000  30.4370000  29.4970000   9.9940000
  31.0410000  31.5110000  10.4930000  30.0490000  31.8750000  10.7720000
  31.7640000  32.0050000  11.1460000  31.3260000  31.9320000   9.0400000
  30.5430000  31.5390000   8.3880000  31.2650000  33.0210000   8.9920000
  32.7110000  31.5030000   8.5990000  33.5110000  31.8080000   9.2700000
  33.0260000  30.8400000   7.4900000  34.0710000  30.6180000   7.2920000
  32.0570000  30.3070000   6.4560000  31.0460000  30.2320000   6.8610000
  32.0260000  30.9920000   5.6070000  32.4710000  28.9220000   5.9300000
  32.5900000  28.2310000   6.7670000  31.6560000  28.5450000   5.3090000
  33.7590000  28.9480000   5.0850000  33.6540000  29.7070000   4.3070000
  34.6080000  29.2290000   5.7110000  34.0360000  27.5890000   4.4200000
  34.1970000  26.8310000   5.1900000  33.1580000  27.2920000   3.8430000
  35.2530000  27.6380000   3.4800000  35.0960000  28.4140000   2.7280000
  36.1430000  27.9100000   4.0520000  35.4880000  26.2900000   2.7750000
  35.7010000  25.5270000   3.5270000  34.5750000  25.9820000   2.2610000
  36.6490000  26.3560000   1.7670000  36.4470000  27.1390000   1.0320000
  37.5650000  26.6310000   2.2940000  36.8740000  25.0250000   1.0320000
  37.7200000  25.1150000   0.3470000  35.9880000  24.7500000   0.4560000
  37.0920000  24.2240000   1.7410000 -37.1720000   7.6550000   1.4170000
 -37.4450000   7.8080000   0.3710000 -36.0860000   7.5550000   1.4810000
 -37.4750000   8.5380000   1.9830000 -37.8520000   6.3920000   1.9660000
 -37.6150000   5.5550000   1.3060000 -38.9360000   6.5240000   1.9460000
 -37.4020000   6.0300000   3.3950000 -36.3230000   5.8640000   3.3980000
 -37.8720000   5.0830000   3.6680000 -37.7530000   7.1050000   4.4440000
 -38.8270000   7.3020000   4.4180000 -37.2470000   8.0380000   4.1880000
 -37.3430000   6.7150000   5.8780000 -37.5120000   7.5740000   6.5310000
 -36.2730000   6.4980000   5.8990000 -38.1320000   5.5110000   6.4310000
 -37.9150000   4.6170000   5.8420000 -39.2000000   5.7150000   6.3260000
 -37.8380000   5.2180000   7.9140000 -38.5390000   4.4560000   8.2620000
 -38.0230000   6.1190000   8.5030000 -36.4130000   4.7060000   8.1850000
 -35.6790000   5.4490000   7.8660000 -36.2390000   3.7980000   7.6030000
 -36.2180000   4.4010000   9.6810000 -36.9980000   3.7130000  10.0120000
 -36.3380000   5.3260000  10.2500000 -34.8440000   3.7750000   9.9780000
 -34.0520000   4.4230000   9.5970000 -34.7680000   2.8300000   9.4370000
 -34.6290000   3.4980000  11.4800000 -33.7400000   2.8740000  11.5960000
 -35.4700000   2.9110000  11.8540000 -34.4690000   4.7560000  12.3600000
 -34.4060000   4.4380000  13.4030000 -35.3560000   5.3860000  12.2720000
 -33.2130000   5.5840000  12.0220000 -33.2790000   5.9510000  10.9960000
 -32.3340000   4.9390000  12.0830000 -33.0240000   6.7830000  12.9700000
 -32.9890000   6.4220000  14.0000000 -33.8820000   7.4550000  12.8860000
 -31.7290000   7.5570000  12.6560000 -31.7600000   7.9260000  11.6280000
 -30.8700000   6.8890000  12.7430000 -31.5220000   8.7260000  13.5880000
 -31.3850000   9.8690000  13.1860000 -31.4410000   8.3590000  14.8860000
 -31.4000000   9.3940000  15.9130000 -30.7930000  10.2320000  15.5610000
 -30.9050000   8.9710000  16.7910000 -32.8080000   9.9050000  16.3500000
 -32.6390000  10.8230000  16.9190000 -33.5730000   8.9150000  17.2730000
 -34.6030000   9.2600000  17.3900000 -33.1010000   8.9130000  18.2590000
 -33.5830000   7.5560000  16.7620000 -34.4790000   6.3970000  17.4420000
 -33.5710000   5.9230000  18.6900000 -33.6150000   6.5910000  19.9640000
 -34.6090000   7.0070000  20.1490000 -32.8900000   7.4090000  19.9640000
 -33.2670000   5.5700000  21.0730000 -33.2680000   6.0930000  22.0300000
 -32.2630000   5.1790000  20.9030000 -34.1720000   4.3700000  21.2560000
 -35.6110000   4.7700000  21.3060000 -35.7430000   5.5030000  22.1040000
 -36.2130000   3.8820000  21.5020000 -35.8810000   5.2020000  20.3410000
 -33.9860000   3.3660000  20.1660000 -32.9440000   3.0410000  20.1650000
 -34.2390000   3.8370000  19.2150000 -34.6470000   2.5190000  20.3540000
 -33.8290000   3.7060000  22.5480000 -32.7790000   3.4100000  22.5220000
 -34.4650000   2.8280000  22.6690000 -34.0030000   4.4110000  23.3620000
 -35.7450000   6.9870000  17.9600000 -34.5620000   5.2490000  16.5020000
 -33.6030000  10.2440000  15.1810000 -34.5870000  11.1580000  15.2900000
 -34.9160000  11.6750000  16.3440000 -35.2340000  11.5030000  13.9660000
 -36.2150000  11.9430000  14.1580000 -34.6190000  12.2560000  13.4700000
 -35.3860000  10.2880000  13.0270000 -34.3910000   9.9000000  12.7970000
 -35.9380000   9.4950000  13.5360000 -36.1110000  10.6510000  11.7160000
 -37.1450000  10.9170000  11.9490000 -35.6450000  11.5310000  11.2690000
 -36.1130000   9.5040000  10.6860000 -36.5000000   8.5970000  11.1560000
 -36.7940000   9.7630000   9.8730000 -34.7160000   9.2250000  10.0920000
 -34.3560000  10.1260000   9.5920000 -34.0120000   8.9920000  10.8940000
 -34.7280000   8.0490000   9.0980000 -35.1310000   7.1700000   9.6070000
 -35.3960000   8.2750000   8.2650000 -33.3290000   7.6970000   8.5550000
 -32.6640000   7.5200000   9.4030000 -33.3910000   6.7560000   8.0030000
 -32.7500000   8.8090000   7.7020000 -32.6810000   9.7770000   8.1920000
 -32.2980000   8.6830000   6.4580000 -31.8830000   9.5520000   5.9540000
 -32.3360000   7.4190000   5.6230000 -33.2040000   6.8100000   5.8830000
 -32.4590000   7.6930000   4.5740000 -31.0490000   6.5890000   5.8120000
 -30.1710000   7.1920000   5.5720000 -30.9730000   6.3290000   6.8700000
 -31.0200000   5.2800000   4.9960000 -30.4340000   4.5490000   5.5570000
 -32.0310000   4.8750000   4.9190000 -30.3920000   5.3820000   3.5900000
 -29.3310000   5.6210000   3.6890000 -30.4560000   4.3930000   3.1320000
 -31.0530000   6.4200000   2.6610000 -32.1350000   6.2770000   2.6630000
 -30.8600000   7.4190000   3.0570000 -30.5310000   6.3780000   1.2090000
 -31.0060000   7.1860000   0.6500000 -29.4590000   6.5850000   1.2130000
 -30.7770000   5.0500000   0.4620000 -30.4130000   5.1560000  -0.5620000
 -30.1890000   4.2530000   0.9230000 -32.2540000   4.6220000   0.4180000
 -32.3580000   3.6960000  -0.1510000 -32.8630000   5.3920000  -0.0600000
 -32.6400000   4.4430000   1.4240000 -36.1750000  11.0340000   2.9560000
 -37.0020000  10.5300000   3.4610000 -36.3990000  11.0770000   1.8880000
 -36.1050000  12.0530000   3.3410000 -34.8590000  10.2750000   3.1950000
 -34.9540000   9.2680000   2.7840000 -34.6960000  10.1720000   4.2700000
 -33.6430000  10.9780000   2.5610000 -33.4920000  11.9410000   3.0550000
 -33.8440000  11.1780000   1.5070000 -32.3730000  10.1140000   2.6820000
 -32.5410000   9.1680000   2.1620000 -32.2110000   9.8610000   3.7320000
 -31.0910000  10.7550000   2.1120000 -31.2190000  10.9320000   1.0420000
 -30.2790000  10.0330000   2.2160000 -30.6600000  12.0760000   2.7870000
 -31.3220000  12.8800000   2.4610000 -29.6540000  12.3300000   2.4460000
 -30.6750000  12.0030000   4.3260000 -30.1310000  11.1100000   4.6430000
 -31.7090000  11.8900000   4.6610000 -30.0710000  13.2370000   5.0240000
 -30.4250000  14.1420000   4.5250000 -28.9830000  13.2150000   4.9310000
 -30.4720000  13.3120000   6.5100000 -31.5560000  13.4350000   6.5580000
 -30.0310000  14.2030000   6.9630000 -30.0900000  12.0660000   7.3320000
 -29.0040000  12.0130000   7.4250000 -30.4150000  11.1660000   6.8050000
 -30.7420000  12.0270000   8.7260000 -30.7350000  10.9920000   9.0740000
 -31.7900000  12.3230000   8.6420000 -30.0400000  12.8920000   9.7900000
 -29.9210000  13.9150000   9.4290000 -29.0430000  12.4860000   9.9770000
 -30.8500000  12.9050000  11.0990000 -31.2660000  11.9110000  11.2730000
 -31.6950000  13.5880000  10.9840000 -30.0260000  13.3030000  12.3370000
 -29.5290000  14.2600000  12.1690000 -29.2540000  12.5490000  12.5060000
 -30.9370000  13.3990000  13.5760000 -31.6140000  12.5420000  13.5960000
 -31.5550000  14.2970000  13.5110000 -30.1780000  13.4270000  14.8790000
 -29.1240000  14.0110000  15.0610000 -30.8140000  12.7090000  15.8300000
 -30.3260000  12.7440000  17.2000000 -29.2350000  12.6780000  17.2200000
 -30.7270000  11.8690000  17.7180000 -30.8120000  14.0200000  17.9360000
 -30.2420000  14.8890000  17.5970000 -30.5870000  13.8660000  19.4560000
 -29.5250000  13.7530000  19.6860000 -31.1150000  12.9700000  19.7930000
 -31.1120000  15.0180000  20.1700000 -31.8130000  14.8400000  21.6110000
 -33.2250000  14.1720000  21.2310000 -34.3250000  14.9860000  20.7850000
 -33.9330000  15.8780000  20.2890000 -34.9230000  15.3000000  21.6440000
 -35.1710000  14.1990000  19.7600000 -34.5360000  13.9180000  18.9190000
 -35.9640000  14.8570000  19.4010000 -35.8630000  12.9330000  20.1960000
 -36.5880000  13.1180000  21.4860000 -35.8540000  13.3320000  22.2650000
 -37.1310000  12.2000000  21.7180000 -37.2810000  13.9520000  21.3710000
 -36.8570000  12.5590000  19.1500000 -36.3330000  12.4140000  18.2040000
 -37.5870000  13.3650000  19.0650000 -37.3540000  11.6360000  19.4510000
 -34.8900000  11.8080000  20.3290000 -34.3970000  11.6630000  19.3670000
 -35.4340000  10.9090000  20.6230000 -34.1590000  12.0780000  21.0920000
 -31.0290000  13.8560000  22.4070000 -32.0520000  16.1920000  22.1850000
 -32.2420000  14.2140000  17.7170000 -32.6290000  15.0690000  16.7500000
 -31.8630000  15.6420000  15.9980000 -34.1280000  15.2550000  16.7190000
 -34.6170000  14.2800000  16.7740000 -34.4110000  15.8160000  17.6120000
 -34.6200000  16.0190000  15.4730000 -35.6440000  16.3550000  15.6490000
 -34.0090000  16.9140000  15.3350000 -34.6060000  15.1790000  14.1840000
 -33.6620000  14.6370000  14.0970000 -35.4050000  14.4360000  14.2360000
 -34.7960000  16.0640000  12.9400000 -35.6630000  16.7110000  13.0850000
 -33.9230000  16.7110000  12.8290000 -34.9950000  15.2500000  11.6500000
 -34.1770000  14.5350000  11.5330000 -35.9240000  14.6810000  11.7260000
 -35.0520000  16.1750000  10.4200000 -35.7210000  17.0110000  10.6370000
 -34.0600000  16.5940000  10.2420000 -35.5530000  15.4870000   9.1380000
 -36.5710000  15.1370000   9.3210000 -35.6190000  16.2300000   8.3400000
 -34.7010000  14.3000000   8.7370000 -34.7780000  13.4450000   9.4040000
 -33.9440000  14.1970000   7.6490000 -33.4170000  13.2630000   7.4720000
 -33.6820000  15.2730000   6.6140000 -34.3250000  16.1460000   6.7510000
 -32.6490000  15.6100000   6.7240000 -33.8540000  14.7390000   5.1810000
 -33.2220000  13.8600000   5.0410000 -34.8900000  14.4230000   5.0380000
 -33.4830000  15.8030000   4.1280000 -34.1550000  16.6590000   4.2220000
 -32.4720000  16.1620000   4.3350000 -33.5210000  15.2750000   2.6810000
 -33.1310000  16.0460000   2.0140000 -32.8530000  14.4150000   2.6020000
 -34.9280000  14.8670000   2.2050000 -35.3460000  14.1290000   2.8920000
 -35.5820000  15.7410000   2.2180000 -34.9020000  14.2610000   0.7910000
 -34.4710000  14.9830000   0.0950000 -34.2560000  13.3800000   0.7940000
 -36.3050000  13.8600000   0.3030000 -36.7850000  13.2220000   1.0480000
 -36.9160000  14.7600000   0.2000000 -36.2680000  13.1200000  -1.0430000
 -37.2800000  12.8510000  -1.3520000 -35.6780000  12.2040000  -0.9600000
 -35.8250000  13.7510000  -1.8160000 -33.2180000 -28.6970000  -1.8880000
 -33.1450000 -28.6250000  -2.9760000 -32.7210000 -29.6180000  -1.5750000
 -32.6870000 -27.8490000  -1.4500000 -34.6940000 -28.6910000  -1.4560000
 -35.2010000 -29.5570000  -1.8890000 -35.1740000 -27.8000000  -1.8650000
 -34.8910000 -28.6990000   0.0720000 -35.9580000 -28.6190000   0.2860000
 -34.4110000 -27.8150000   0.4970000 -34.3380000 -29.9620000   0.7620000
 -33.2670000 -30.0550000   0.5690000 -34.8210000 -30.8460000   0.3390000
 -34.5710000 -29.9290000   2.2840000 -35.6430000 -29.8560000   2.4820000
 -34.1030000 -29.0370000   2.7050000 -34.0070000 -31.1760000   2.9880000
 -32.9220000 -31.1960000   2.8680000 -34.4090000 -32.0730000   2.5130000
 -34.3600000 -31.1970000   4.4860000 -35.4460000 -31.2250000   4.5980000
 -34.0040000 -30.2730000   4.9480000 -33.7380000 -32.4070000   5.2080000
 -32.6500000 -32.3160000   5.1830000 -34.0010000 -33.3180000   4.6660000
 -34.2010000 -32.5660000   6.6690000 -33.7750000 -33.4860000   7.0750000
 -35.2870000 -32.6700000   6.6860000 -33.8080000 -31.3840000   7.5690000
 -34.2770000 -30.4740000   7.1890000 -32.7260000 -31.2480000   7.5250000
 -34.2530000 -31.5880000   9.0300000 -33.7310000 -32.4470000   9.4570000
 -35.3210000 -31.8160000   9.0460000 -34.0060000 -30.3440000   9.9040000
 -34.4480000 -30.5140000  10.8880000 -34.5300000 -29.4930000   9.4620000
 -32.5140000 -29.9970000  10.0800000 -32.0330000 -29.8770000   9.1070000
 -32.0150000 -30.8220000  10.5920000 -32.3220000 -28.7020000  10.8870000
 -32.8750000 -28.7890000  11.8240000 -32.7500000 -27.8630000  10.3340000
 -30.8350000 -28.4130000  11.1900000 -30.2770000 -28.3020000  10.2580000
 -30.4050000 -29.2490000  11.7470000 -30.6880000 -27.1580000  12.0140000
 -30.0780000 -26.1690000  11.6490000 -31.3400000 -27.2560000  13.1840000
 -31.5570000 -26.0640000  13.9890000 -31.7300000 -25.1990000  13.3430000
 -30.6810000 -25.8700000  14.6130000 -32.8170000 -26.2840000  14.8640000
 -33.0710000 -25.3510000  15.3730000 -32.5960000 -27.3870000  15.9200000
 -32.2760000 -28.3020000  15.4150000 -33.5350000 -27.5830000  16.4450000
 -31.5710000 -26.9930000  16.8700000 -31.8810000 -26.0240000  18.1280000
 -31.8390000 -27.0290000  19.3850000 -32.9460000 -27.8940000  19.7100000
 -33.8910000 -27.3950000  19.4830000 -32.9230000 -28.0910000  20.7850000
 -32.8390000 -29.2270000  18.9280000 -32.8460000 -29.0210000  17.8570000
 -33.7180000 -29.8310000  19.1600000 -31.6460000 -30.1210000  19.1760000
 -31.4920000 -30.4270000  20.6300000 -31.2700000 -29.4980000  21.1580000
 -30.6700000 -31.1330000  20.7530000 -32.4220000 -30.8620000  20.9970000
 -31.8570000 -31.4090000  18.4500000 -31.9490000 -31.1980000  17.3830000
 -32.7690000 -31.8780000  18.8230000 -30.9990000 -32.0570000  18.6320000
 -30.3840000 -29.5090000  18.6640000 -30.5120000 -29.2750000  17.6060000
 -29.5630000 -30.2130000  18.8080000 -30.1970000 -28.5890000  19.2210000
 -30.7480000 -25.0770000  18.2670000 -33.2580000 -25.4830000  18.0070000
 -33.9290000 -26.7250000  14.0330000 -34.5920000 -25.8190000  13.2920000
 -34.4160000 -24.6180000  13.3660000 -35.5770000 -26.4740000  12.3500000
 -35.3160000 -27.5280000  12.2340000 -36.5690000 -26.4250000  12.8030000
 -35.6010000 -25.8140000  10.9600000 -35.7000000 -24.7320000  11.0700000
 -34.6550000 -26.0110000  10.4500000 -36.7830000 -26.3230000  10.1160000
 -36.7310000 -27.4080000  10.0010000 -37.7000000 -26.1020000  10.6660000
 -36.8900000 -25.6450000   8.7360000 -37.9510000 -25.5170000   8.5110000
 -36.4530000 -24.6460000   8.7810000 -36.2680000 -26.4330000   7.5680000
 -36.8270000 -27.3620000   7.4390000 -36.4000000 -25.8520000   6.6520000
 -34.7760000 -26.7730000   7.7340000 -34.2040000 -25.8570000   7.8950000
 -34.6420000 -27.4090000   8.6110000 -34.2350000 -27.5050000   6.4950000
 -34.8790000 -28.3620000   6.2860000 -34.2970000 -26.8440000   5.6280000
 -32.8210000 -28.0010000   6.7170000 -32.7330000 -28.8400000   7.4030000
 -31.7340000 -27.5580000   6.0950000 -30.7740000 -28.0250000   6.2990000
 -31.6850000 -26.3650000   5.1670000 -32.4220000 -25.6220000   5.4800000
 -30.7060000 -25.8870000   5.2420000 -31.9660000 -26.7310000   3.7000000
 -32.9860000 -27.1110000   3.6120000 -31.9180000 -25.8110000   3.1140000
 -30.9880000 -27.7590000   3.1030000 -29.9610000 -27.4430000   3.2990000
 -31.1320000 -28.7240000   3.5950000 -31.2100000 -27.9210000   1.5870000
 -32.2500000 -28.2090000   1.4220000 -31.0700000 -26.9600000   1.0880000
 -30.3040000 -28.9870000   0.9430000 -30.3720000 -29.9080000   1.5270000
 -30.6920000 -29.2170000  -0.0510000 -28.8210000 -28.5790000   0.8150000
 -28.4440000 -28.2370000   1.7810000 -28.2410000 -29.4640000   0.5450000
 -28.5850000 -27.4920000  -0.2530000 -28.9330000 -27.8560000  -1.2220000
 -29.1690000 -26.6010000  -0.0140000 -27.1040000 -27.0960000  -0.3700000
 -26.9850000 -26.3010000  -1.1090000 -26.5040000 -27.9510000  -0.6870000
 -26.7230000 -26.7370000   0.5890000  43.8440000  10.7200000  -2.2680000
  44.5600000   9.9210000  -2.0690000  43.9080000  10.9860000  -3.3250000
  42.8420000  10.3370000  -2.0610000  44.1540000  11.9400000  -1.3840000
  45.1990000  12.2180000  -1.5350000  44.0540000  11.6600000  -0.3330000
  43.2740000  13.1710000  -1.6850000  43.4880000  13.5190000  -2.6970000
  43.5630000  13.9790000  -1.0090000  41.7560000  12.9280000  -1.5610000
  41.4410000  12.2380000  -2.3470000  41.2310000  13.8690000  -1.7410000
  41.3120000  12.3570000  -0.2000000  41.8230000  11.4090000  -0.0190000
  40.2450000  12.1310000  -0.2530000  41.5310000  13.3030000   0.9950000
  40.8930000  14.1810000   0.8710000  42.5670000  13.6480000   1.0310000
  41.1920000  12.5920000   2.3180000  42.0220000  11.9370000   2.5920000
  40.3120000  11.9620000   2.1740000  40.9110000  13.5590000   3.4780000
  40.0470000  14.1770000   3.2240000  41.7660000  14.2220000   3.6250000
  40.6320000  12.7930000   4.7820000  41.5630000  12.3470000   5.1380000
  39.9300000  11.9790000   4.5860000  40.0410000  13.6990000   5.8730000
  39.0630000  14.0600000   5.5500000  40.6870000  14.5700000   6.0070000
  39.9040000  12.9550000   7.2110000  40.9030000  12.7110000   7.5780000
  39.3760000  12.0140000   7.0440000  39.1320000  13.7700000   8.2650000
  38.1090000  13.9090000   7.9100000  39.5710000  14.7650000   8.3700000
  39.0940000  13.0740000   9.6390000  38.7840000  12.0360000   9.5010000
  38.3320000  13.5550000  10.2560000  40.4410000  13.1280000  10.3900000
  40.6540000  14.1650000  10.6580000  41.2510000  12.7780000   9.7460000
  40.4190000  12.2740000  11.6660000  40.3790000  11.2160000  11.3950000
  39.5270000  12.5050000  12.2520000  41.6400000  12.5030000  12.5200000
  42.6790000  11.8820000  12.3890000  41.4210000  13.4360000  13.4680000
  42.4220000  13.6600000  14.5050000  42.9790000  12.7420000  14.7090000
  41.8800000  13.9160000  15.4180000  43.3890000  14.8330000  14.1650000
  44.0890000  14.9530000  14.9960000  42.6360000  16.1760000  13.9880000
  41.5710000  16.0100000  13.8080000  43.0500000  16.6980000  13.1210000
  42.8210000  17.0340000  15.1520000  41.9720000  16.8560000  16.5160000
  42.5970000  15.5150000  17.1450000  43.8490000  15.5240000  17.8560000
  44.5220000  16.2650000  17.4170000  44.3120000  14.5400000  17.7480000
  43.6110000  15.8290000  19.3530000  43.2200000  16.8430000  19.4570000
  44.5730000  15.7780000  19.8650000  42.6780000  14.9300000  20.1320000
  42.9150000  15.1480000  21.5900000  43.9460000  14.8750000  21.8180000
  42.2250000  14.5180000  22.1530000  42.7390000  16.2000000  21.8180000
  41.2500000  15.2560000  19.8450000  41.0630000  15.0740000  18.7860000
  41.0780000  16.3070000  20.0800000  40.6120000  14.6170000  20.4580000
  42.9150000  13.4850000  19.8360000  42.6720000  13.3070000  18.7870000
  42.2680000  12.8870000  20.4800000  43.9640000  13.2590000  20.0290000
  42.3030000  17.9930000  17.4110000  40.5490000  16.5900000  16.1790000
  44.1740000  14.5840000  12.9620000  45.1840000  13.6910000  13.0430000
  45.4060000  13.0090000  14.0280000  46.0740000  13.6490000  11.8170000
  46.5770000  14.6110000  11.6910000  46.8540000  12.9090000  12.0120000
  45.3580000  13.2590000  10.5080000  46.1060000  12.8690000   9.8150000
  44.6480000  12.4510000  10.6980000  44.6420000  14.4400000   9.8230000
  43.8620000  14.8200000  10.4860000  45.3590000  15.2470000   9.6580000
  44.0170000  14.0380000   8.4740000  44.7900000  13.5960000   7.8420000
  43.2630000  13.2670000   8.6430000  43.3740000  15.2190000   7.7180000
  44.1550000  15.9140000   7.4020000  42.8990000  14.8330000   6.8130000
  42.3280000  15.9720000   8.5640000  41.6580000  15.2390000   9.0170000
  42.8280000  16.4980000   9.3810000  41.4720000  16.9840000   7.7800000
  40.9440000  16.4800000   6.9680000  40.7020000  17.3670000   8.4520000
  42.2850000  18.1520000   7.2690000  42.5010000  18.9100000   8.0170000
  42.6820000  18.3560000   6.0170000  43.2300000  19.2660000   5.7840000
  42.5560000  17.3870000   4.8600000  43.5620000  17.0380000   4.6210000
  41.9710000  16.5040000   5.1250000  41.9330000  18.0620000   3.6190000
  40.8900000  18.2980000   3.8400000  42.4360000  19.0110000   3.4200000
  41.9880000  17.1870000   2.3490000  41.5070000  16.2310000   2.5700000
  41.3960000  17.6560000   1.5600000  43.4220000  16.9200000   1.8320000
  44.1470000  17.0720000   2.6350000  43.5040000  15.8710000   1.5410000
  43.8510000  17.7950000   0.6400000  43.5910000  18.8400000   0.8230000
  44.9390000  17.7490000   0.5560000  43.2430000  17.3220000  -0.6930000
  43.3040000  16.2330000  -0.7490000  42.1850000  17.5910000  -0.7320000
  43.9890000  17.9150000  -1.9010000  43.9450000  19.0060000  -1.8620000
  45.0410000  17.6270000  -1.8480000  43.4090000  17.4280000  -3.2380000
  43.9950000  17.8140000  -4.0740000  42.3810000  17.7780000  -3.3500000
  43.4160000  16.3370000  -3.2840000  45.9840000 -13.6830000   2.4040000
  45.4620000 -14.6420000   2.3860000  46.7470000 -13.7250000   3.1840000
  46.4810000 -13.5410000   1.4420000  44.9860000 -12.5430000   2.6760000
  44.5560000 -12.6740000   3.6710000  44.1630000 -12.6180000   1.9630000
  45.6080000 -11.1360000   2.5610000  44.8510000 -10.3940000   2.8250000
  45.8720000 -10.9550000   1.5170000  46.8640000 -10.9030000   3.4260000
  47.1890000  -9.8690000   3.2930000  47.6750000 -11.5330000   3.0560000
  46.6750000 -11.1740000   4.9310000  47.6360000 -11.0160000   5.4250000
  46.4150000 -12.2230000   5.0880000  45.6130000 -10.2800000   5.6020000
  44.6270000 -10.5120000   5.1950000  45.8230000  -9.2330000   5.3740000
  45.5940000 -10.4970000   7.1280000  46.6110000 -10.4210000   7.5190000
  45.2540000 -11.5150000   7.3280000  44.6940000  -9.5160000   7.9040000
  44.5800000  -9.9010000   8.9200000  43.6970000  -9.4950000   7.4590000
  45.2640000  -8.0840000   7.9870000  45.2450000  -7.6150000   7.0010000
  46.3050000  -8.1310000   8.3140000  44.4680000  -7.2270000   8.9900000
  44.4210000  -7.7700000   9.9360000  43.4450000  -7.1130000   8.6270000
  45.0740000  -5.8290000   9.2340000  45.0380000  -5.2670000   8.2990000
  46.1250000  -5.9270000   9.5110000  44.3240000  -5.0340000  10.3270000
  43.2620000  -5.0220000  10.0710000  44.6720000  -3.9990000  10.3190000
  44.5070000  -5.6130000  11.7490000  45.5690000  -5.6010000  12.0030000
  44.1890000  -6.6580000  11.7590000  43.7240000  -4.8730000  12.8540000
  44.1440000  -3.8760000  13.0050000  43.8560000  -5.4210000  13.7900000
  42.2190000  -4.7580000  12.5410000  41.8730000  -5.6900000  12.0880000
  42.0510000  -3.9620000  11.8130000  41.3790000  -4.4770000  13.7650000
  41.5890000  -3.5620000  14.5430000  40.3450000  -5.3350000  13.8630000
  39.3580000  -5.1390000  14.9180000  38.5980000  -4.4330000  14.5740000
  39.8310000  -4.7170000  15.8080000  38.6960000  -6.4880000  15.3190000
  37.8870000  -6.2920000  16.0270000  39.6990000  -7.4630000  15.9820000
  40.2210000  -7.9980000  15.1850000  39.1630000  -8.1860000  16.6030000
  40.6820000  -6.7600000  16.7900000  42.0820000  -7.4380000  17.2230000
  41.8680000  -7.6530000  18.8020000  41.4280000  -8.9050000  19.3510000
  40.7190000  -9.3780000  18.6670000  40.9150000  -8.7090000  20.2960000
  42.6520000  -9.8210000  19.5960000  43.0990000 -10.0730000  18.6330000
  42.3010000 -10.7440000  20.0600000  43.7810000  -9.3140000  20.4670000
  43.2720000  -8.6920000  21.7270000  42.6820000  -7.8130000  21.4630000
  44.1250000  -8.4000000  22.3430000  42.6580000  -9.4230000  22.2550000
  44.6540000 -10.4650000  20.8410000  45.0310000 -10.9250000  19.9270000
  44.0640000 -11.1830000  21.4130000  45.4800000 -10.0900000  21.4460000
  44.6310000  -8.3250000  19.7390000  45.0150000  -8.7960000  18.8330000
  45.4520000  -8.0170000  20.3880000  44.0150000  -7.4640000  19.4720000
  42.2300000  -8.7670000  16.5700000  43.1620000  -6.4310000  17.0560000
  38.1580000  -7.1770000  14.1580000  37.0620000  -6.7080000  13.5340000
  36.4810000  -5.6790000  13.8360000  36.6240000  -7.6310000  12.4200000
  36.1320000  -7.0590000  11.6310000  37.5070000  -8.0890000  11.9700000
  35.6700000  -8.7090000  12.9730000  35.8940000  -8.8760000  14.0280000
  34.6450000  -8.3370000  12.9270000  35.7720000 -10.0690000  12.2610000
  36.7970000 -10.4320000  12.3700000  35.1170000 -10.7790000  12.7710000
  35.4110000 -10.0600000  10.7690000  34.3610000  -9.7820000  10.6600000
  36.0060000  -9.3030000  10.2530000  35.6340000 -11.4340000  10.1020000
  34.9790000 -12.1710000  10.5720000  35.3340000 -11.3620000   9.0550000
  37.0930000 -11.9320000  10.1860000  37.7740000 -11.0910000  10.0380000
  37.2920000 -12.3280000  11.1840000  37.4250000 -13.0090000   9.1400000
  36.9010000 -13.9310000   9.4020000  37.0570000 -12.6880000   8.1640000
  38.9210000 -13.2560000   9.1080000  39.3880000 -13.3800000  10.0820000
  39.6770000 -13.2660000   8.0130000  40.7480000 -13.4260000   8.1020000
  39.1550000 -13.1620000   6.5950000  39.7410000 -13.8010000   5.9310000
  38.1310000 -13.5390000   6.5490000  39.1730000 -11.7170000   6.0660000
  38.4440000 -11.6400000   5.2560000  38.8510000 -11.0330000   6.8540000
  40.5450000 -11.2790000   5.5210000  41.3010000 -11.3540000   6.3050000
  40.8340000 -11.9680000   4.7240000  40.4970000  -9.8380000   4.9760000
  39.5880000  -9.6970000   4.3870000  40.4310000  -9.1480000   5.8200000
  41.7200000  -9.4460000   4.1230000  41.6530000  -8.3800000   3.8960000
  42.6260000  -9.5780000   4.7180000  41.8680000 -10.2300000   2.8010000
  42.7150000  -9.8170000   2.2490000  42.1170000 -11.2700000   3.0230000
  40.6290000 -10.1990000   1.8820000  40.8500000 -10.7650000   0.9750000
  39.7930000 -10.7040000   2.3710000  40.2000000  -8.7770000   1.4810000
  39.3710000  -8.8210000   0.7700000  41.0290000  -8.2460000   1.0080000
  39.8700000  -8.2090000   2.3530000  21.0240000  -9.7030000   2.4710000
  20.2890000  -9.5670000   1.6750000  21.7800000  -8.9210000   2.3710000
  20.5180000  -9.5870000   3.4320000  21.6640000 -11.0960000   2.3660000
  22.2530000 -11.1460000   1.4490000  20.8660000 -11.8360000   2.2730000
  22.5520000 -11.4940000   3.5620000  22.9320000 -12.4980000   3.3620000
  21.9430000 -11.5680000   4.4660000  23.7660000 -10.5760000   3.8280000
  24.1580000 -10.1960000   2.8810000  24.5560000 -11.1880000   4.2690000
  23.4900000  -9.4030000   4.7930000  22.9880000  -9.7770000   5.6880000
  22.8230000  -8.6790000   4.3190000  24.8000000  -8.7060000   5.2090000
  25.3390000  -8.3880000   4.3130000  25.4360000  -9.4330000   5.7190000
  24.6100000  -7.4920000   6.1380000  25.5970000  -7.1740000   6.4800000
  24.0410000  -7.7970000   7.0180000  23.9080000  -6.2970000   5.4630000
  22.8370000  -6.4980000   5.3900000  24.2870000  -6.1880000   4.4450000
  24.1310000  -4.9590000   6.1970000  23.7210000  -4.1540000   5.5840000
  25.2050000  -4.7860000   6.2800000  23.4990000  -4.8790000   7.6000000
  23.8760000  -5.6950000   8.2210000  22.4170000  -4.9940000   7.5190000
  23.8280000  -3.5370000   8.2830000  23.4730000  -2.7140000   7.6580000
  24.9130000  -3.4420000   8.3550000  23.2020000  -3.4120000   9.6870000
  23.5760000  -4.2200000  10.3190000  22.1220000  -3.5460000   9.6090000
  23.4790000  -2.0550000  10.3750000  23.0520000  -2.0780000  11.3800000
  22.9460000  -1.2720000   9.8310000  24.9690000  -1.6560000  10.4600000
  25.0640000  -0.7370000  11.0420000  25.3140000  -1.4150000   9.4520000
  25.9200000  -2.7210000  11.0480000  25.7720000  -3.6790000  10.5470000
  26.9490000  -2.4140000  10.8460000  25.7780000  -2.9190000  12.5410000
  26.6400000  -2.6030000  13.3390000  24.6300000  -3.5180000  12.9030000
  24.5320000  -4.0310000  14.2690000  24.7790000  -3.2390000  14.9810000
  25.2470000  -4.8490000  14.3870000  23.0970000  -4.5370000  14.5530000
  22.4370000  -3.6660000  14.5930000  23.0060000  -5.3280000  15.8840000
  21.9800000  -5.6890000  15.9980000  23.2320000  -4.6700000  16.7270000
  23.9270000  -6.4590000  15.8970000  23.7080000  -7.7270000  16.8800000
  24.1220000  -7.1440000  18.3220000  25.5060000  -6.9230000  18.6490000
  25.9160000  -6.1830000  17.9570000  26.0680000  -7.8530000  18.5340000
  25.6200000  -6.3960000  20.1000000  25.0600000  -5.4650000  20.1910000
  26.6700000  -6.1810000  20.3040000  25.1540000  -7.2870000  21.2290000
  25.7180000  -8.6660000  21.1090000  25.3260000  -9.1190000  20.1980000
  25.4100000  -9.2450000  21.9810000  26.8060000  -8.5950000  21.0650000
  25.6200000  -6.7040000  22.5230000  25.2070000  -5.6990000  22.6220000
  26.7100000  -6.6670000  22.5190000  25.2680000  -7.3380000  23.3380000
  23.6640000  -7.3710000  21.2810000  23.2620000  -6.3630000  21.3910000
  23.3760000  -7.9920000  22.1310000  23.3120000  -7.8140000  20.3490000
  22.2610000  -8.0830000  16.9230000  24.6830000  -8.7890000  16.5030000
  22.7110000  -5.4050000  13.4540000  21.4170000  -5.4670000  13.1080000
  20.4990000  -4.9930000  13.7540000  21.2380000  -6.1830000  11.7960000
  20.2980000  -5.8670000  11.3400000  22.0480000  -5.8770000  11.1310000
  21.2540000  -7.7080000  12.0040000  21.9940000  -7.9670000  12.7640000
  20.2830000  -8.0200000  12.3950000  21.5610000  -8.5020000  10.7200000
  21.4450000  -9.5640000  10.9460000  20.8190000  -8.2640000   9.9550000
  22.9730000  -8.2690000  10.1370000  23.0880000  -8.9060000   9.2580000
  23.0660000  -7.2390000   9.7860000  24.1070000  -8.5730000  11.1400000
  24.2050000  -7.7420000  11.8410000  23.8370000  -9.4560000  11.7220000
  25.4700000  -8.8510000  10.4700000  26.2110000  -9.0620000  11.2440000
  25.3750000  -9.7590000   9.8710000  26.0010000  -7.7270000   9.5590000
  26.8290000  -8.1250000   8.9690000  25.2170000  -7.4520000   8.8520000
  26.4220000  -6.4910000  10.3310000  25.6670000  -6.0850000  10.9990000
  27.5930000  -5.8710000  10.2100000  27.7870000  -4.9750000  10.7950000
  28.7480000  -6.3320000   9.3420000  29.6790000  -5.9140000   9.7310000
  28.8500000  -7.4180000   9.3950000  28.5710000  -5.8980000   7.8740000
  27.6040000  -6.2570000   7.5140000  28.5550000  -4.8080000   7.8180000
  29.6940000  -6.4480000   6.9710000  30.6600000  -6.1170000   7.3580000
  29.6920000  -7.5390000   7.0150000  29.5780000  -6.0040000   5.4990000
  29.5640000  -4.9130000   5.4490000  30.4700000  -6.3400000   4.9650000
  28.3310000  -6.5650000   4.7900000  28.3370000  -7.6540000   4.8590000
  27.4310000  -6.2060000   5.2930000  28.2670000  -6.1490000   3.3100000
  28.2510000  -5.0600000   3.2400000  29.1640000  -6.4980000   2.7940000
  27.0200000  -6.7260000   2.6150000  27.0570000  -7.8160000   2.6520000
  26.1260000  -6.4060000   3.1550000  26.9030000  -6.2740000   1.1530000
  27.7800000  -6.5930000   0.5880000  26.8240000  -5.1870000   1.0950000
  26.0140000  -6.7110000   0.6920000  16.1830000  41.6400000   1.8010000
  15.3240000  40.9650000   1.8130000  17.0740000  41.0740000   2.0800000
  16.3140000  42.0050000   0.7800000  15.9720000  42.8220000   2.7630000
  15.0640000  43.3610000   2.4850000  16.8060000  43.5180000   2.6490000
  15.8770000  42.3940000   4.2400000  15.8630000  43.2930000   4.8600000
  16.7690000  41.8240000   4.5070000  14.6240000  41.5510000   4.5410000
  14.6190000  40.6660000   3.9020000  13.7340000  42.1350000   4.2950000
  14.5260000  41.0780000   6.0010000  15.3550000  40.4000000   6.2150000
  13.6040000  40.5040000   6.1030000  14.5220000  42.2240000   7.0330000
  13.8720000  43.0240000   6.6720000  15.5270000  42.6410000   7.1230000
  14.0130000  41.7810000   8.4200000  12.9620000  41.5020000   8.3240000
  14.0520000  42.6300000   9.1060000  14.7720000  40.5920000   9.0410000
  14.7980000  39.7610000   8.3330000  14.1990000  40.2500000   9.9060000
  16.2070000  40.9270000   9.5000000  16.1610000  41.6290000  10.3360000
  16.7450000  41.4270000   8.6920000  17.0150000  39.6790000   9.9180000
  17.9580000  39.9970000  10.3680000  17.2670000  39.1180000   9.0160000
  16.2880000  38.7170000  10.8770000  16.9250000  37.8460000  11.0480000
  15.3850000  38.3460000  10.3870000  15.9110000  39.3410000  12.2350000
  15.3500000  40.2640000  12.0690000  16.8260000  39.5970000  12.7740000
  15.0480000  38.3840000  13.0810000  15.6270000  37.4930000  13.3320000
  14.2120000  38.0550000  12.4610000  14.4500000  38.9910000  14.3690000
  13.7280000  38.2700000  14.7590000  13.8830000  39.8920000  14.1280000
  15.4670000  39.2840000  15.4960000  16.1430000  38.4330000  15.6040000
  14.9320000  39.3850000  16.4430000  16.2840000  40.5410000  15.3030000
  15.9980000  41.4470000  14.5400000  17.3870000  40.5080000  16.0770000
  18.2730000  41.6640000  16.1200000  18.3800000  42.0780000  15.1140000
  19.2540000  41.3080000  16.4450000  17.8220000  42.7860000  17.1010000
  18.5750000  43.5750000  17.0300000  17.7510000  42.3320000  18.5810000
  17.4680000  43.1950000  19.1880000  18.7370000  41.9940000  18.9100000
  16.7960000  41.2530000  18.7880000  15.6110000  41.3770000  19.8720000
  14.5790000  42.3960000  19.1800000  13.6920000  41.9610000  18.1350000
  13.3440000  40.9440000  18.3300000  14.2350000  41.9650000  17.1860000
  12.4780000  42.9220000  18.0780000  11.8070000  42.5800000  17.2890000
  12.8230000  43.9250000  17.8230000  11.6240000  43.0690000  19.3220000
  10.3500000  43.7620000  18.9670000  10.5780000  44.7250000  18.5060000
   9.7670000  43.9110000  19.8770000   9.7830000  43.1380000  18.2740000
  11.2810000  41.7410000  19.9140000  12.2070000  41.2570000  20.2280000
  10.7700000  41.1400000  19.1600000  10.6310000  41.9020000  20.7750000
  12.3110000  43.8990000  20.3570000  13.2210000  43.3810000  20.6620000
  11.6430000  44.0200000  21.2110000  12.5610000  44.8670000  19.9210000
  14.9550000  40.0480000  20.0040000  16.1440000  42.0260000  21.1030000
  16.5280000  43.3050000  16.6890000  16.3210000  44.6330000  16.6240000
  17.1250000  45.4780000  16.9830000  14.9720000  44.9640000  16.0280000
  14.4010000  44.0410000  15.9060000  14.4230000  45.6030000  16.7230000
  15.1110000  45.6600000  14.6590000  15.6110000  46.6230000  14.7880000
  15.7360000  45.0500000  14.0040000  13.7420000  45.8790000  13.9870000
  13.2620000  44.9100000  13.8380000  13.1020000  46.4590000  14.6550000
  13.8510000  46.5990000  12.6280000  14.3380000  47.5670000  12.7650000
  14.4810000  46.0080000  11.9610000  12.4610000  46.8140000  11.9950000
  11.9390000  45.8570000  11.9270000  11.8780000  47.4450000  12.6700000
  12.4740000  47.4800000  10.6030000  11.5750000  48.0930000  10.5170000
  13.3240000  48.1610000  10.5210000  12.4640000  46.4940000   9.4150000
  11.6350000  45.7980000   9.5600000  12.2450000  47.0530000   8.5030000
  13.7530000  45.7050000   9.2880000  14.0430000  45.1640000  10.1850000
  14.5060000  45.5830000   8.1980000  15.3960000  44.9600000   8.2450000
  14.2620000  46.2340000   6.8520000  13.8060000  45.5040000   6.1800000
  13.5830000  47.0860000   6.9280000  15.5830000  46.7070000   6.2200000
  16.0540000  47.4420000   6.8760000  16.2650000  45.8590000   6.1320000
  15.3610000  47.3290000   4.8290000  14.9000000  46.5870000   4.1740000
  14.6660000  48.1660000   4.9210000  16.6800000  47.8140000   4.1980000
  17.1020000  48.6120000   4.8130000  17.3980000  46.9920000   4.2040000
  16.5190000  48.3170000   2.7500000  17.5060000  48.5720000   2.3590000
  16.1260000  47.5050000   2.1340000  15.6010000  49.5490000   2.6390000
  14.5910000  49.2850000   2.9600000  15.9670000  50.3200000   3.3190000
  15.5360000  50.1500000   1.2220000  14.8900000  51.0300000   1.2390000
  16.5350000  50.4870000   0.9370000  15.0110000  49.1800000   0.1540000
  14.9250000  49.6950000  -0.8050000  14.0270000  48.7960000   0.4310000
  15.6970000  48.3400000   0.0280000 -36.7570000 -16.8920000   4.9120000
 -37.4450000 -16.2900000   5.5090000 -36.1020000 -17.4360000   5.5950000
 -37.3440000 -17.6170000   4.3430000 -35.9380000 -15.9950000   3.9660000
 -35.2820000 -15.3490000   4.5540000 -36.6170000 -15.3410000   3.4150000
 -35.1000000 -16.7910000   2.9490000 -34.5500000 -16.0910000   2.3170000
 -35.7800000 -17.3390000   2.2940000 -34.1220000 -17.7980000   3.5850000
 -33.6580000 -18.3860000   2.7910000 -34.6910000 -18.5020000   4.1960000
 -33.0090000 -17.1810000   4.4550000 -32.4710000 -17.9940000   4.9470000
 -33.4560000 -16.5740000   5.2440000 -32.0000000 -16.3520000   3.6350000
 -32.5000000 -15.5080000   3.1570000 -31.6180000 -16.9890000   2.8340000
 -30.7920000 -15.8440000   4.4500000 -29.9350000 -15.8000000   3.7750000
 -30.5300000 -16.5640000   5.2280000 -30.9660000 -14.4350000   5.0550000
 -31.1970000 -13.7410000   4.2440000 -30.0090000 -14.1200000   5.4770000
 -32.0510000 -14.2750000   6.1360000 -33.0310000 -14.4810000   5.7000000
 -32.0580000 -13.2290000   6.4480000 -31.8260000 -15.1770000   7.3650000
 -30.8150000 -15.0190000   7.7480000 -31.8940000 -16.2230000   7.0590000
 -32.8360000 -14.9400000   8.5040000 -32.6890000 -15.7280000   9.2460000
 -33.8520000 -15.0460000   8.1190000 -32.6730000 -13.5630000   9.1810000
 -32.8540000 -12.7740000   8.4480000 -31.6390000 -13.4570000   9.5170000
 -33.6060000 -13.3220000  10.3870000 -34.6420000 -13.2550000  10.0460000
 -33.3570000 -12.3500000  10.8180000 -33.4780000 -14.3880000  11.4940000
 -33.4860000 -13.8960000  12.4690000 -32.5080000 -14.8820000  11.4110000
 -34.6000000 -15.4480000  11.4600000 -34.2420000 -16.3600000  11.9430000
 -34.8690000 -15.7070000  10.4340000 -35.8180000 -14.9670000  12.2090000
 -36.7320000 -14.3300000  11.7220000 -35.7450000 -15.3030000  13.5070000
 -36.8270000 -14.9450000  14.4080000 -37.7220000 -15.5180000  14.1510000
 -37.0520000 -13.8800000  14.3080000 -36.3820000 -15.2510000  15.8630000
 -37.2110000 -15.0530000  16.5470000 -35.1890000 -14.3410000  16.2660000
 -35.5610000 -13.3400000  16.4980000 -34.5000000 -14.2630000  15.4210000
 -34.4220000 -14.8380000  17.4010000 -35.0470000 -15.0250000  18.8870000
 -35.3380000 -16.6150000  18.9840000 -34.3440000 -17.5940000  18.5910000
 -33.9990000 -17.3560000  17.5820000 -34.8210000 -18.5760000  18.5570000
 -33.1260000 -17.6340000  19.5490000 -32.7220000 -16.6260000  19.6540000
 -32.3500000 -18.2570000  19.1040000 -33.3090000 -18.1570000  20.9510000
 -34.3120000 -17.3690000  21.7220000 -33.9960000 -16.3250000  21.7200000
 -34.3610000 -17.7590000  22.7400000 -35.2770000 -17.4680000  21.2240000
 -33.7240000 -19.5880000  20.9420000 -32.9890000 -20.1610000  20.3750000
 -34.7130000 -19.6560000  20.4850000 -33.7700000 -19.9410000  21.9730000
 -32.0000000 -18.0630000  21.6590000 -31.2650000 -18.6550000  21.1100000
 -32.1200000 -18.4520000  22.6710000 -31.6970000 -17.0160000  21.6880000
 -34.0080000 -14.6590000  19.8880000 -36.3600000 -14.3210000  18.9440000
 -36.0000000 -16.6510000  15.9520000 -36.9760000 -17.5750000  15.9940000
 -38.1640000 -17.3150000  16.0880000 -36.4350000 -18.9720000  15.8400000
 -35.3440000 -18.9440000  15.8880000 -36.7850000 -19.5750000  16.6800000
 -36.8860000 -19.6150000  14.5130000 -36.4170000 -20.5970000  14.4170000
 -37.9660000 -19.7780000  14.5500000 -36.5490000 -18.7590000  13.2760000
 -37.0140000 -17.7770000  13.3820000 -35.4700000 -18.6030000  13.2130000
 -37.0590000 -19.3900000  11.9700000 -36.5090000 -20.3100000  11.7630000
 -38.1110000 -19.6530000  12.0920000 -36.9240000 -18.4210000  10.7820000
 -37.4270000 -17.4850000  11.0340000 -35.8690000 -18.1910000  10.6130000
 -37.5360000 -19.0000000   9.4920000 -36.9670000 -19.8820000   9.1910000
 -38.5590000 -19.3250000   9.6950000 -37.5570000 -17.9910000   8.3290000
 -36.5350000 -17.6620000   8.1260000 -37.9120000 -18.5120000   7.4370000
 -38.4900000 -16.8310000   8.6260000 -39.4930000 -17.1240000   8.9240000
 -38.1930000 -15.5360000   8.5820000 -38.9640000 -14.8130000   8.8380000
 -36.8700000 -14.9240000   8.1770000 -36.3710000 -14.5180000   9.0590000
 -36.2020000 -15.6630000   7.7280000 -37.0890000 -13.7760000   7.1800000
 -37.6570000 -14.1520000   6.3270000 -37.6850000 -12.9900000   7.6490000
 -35.7560000 -13.1950000   6.6800000 -35.2130000 -12.7540000   7.5190000
 -35.1420000 -14.0060000   6.2850000 -35.9560000 -12.1350000   5.5850000
 -36.5700000 -12.5490000   4.7830000 -36.4960000 -11.2820000   6.0020000
 -34.6230000 -11.6540000   4.9920000 -33.9240000 -11.4190000   5.7970000
 -34.1870000 -12.4640000   4.4040000 -34.8160000 -10.4020000   4.1170000
 -35.6420000 -10.5590000   3.4200000 -35.0940000  -9.5650000   4.7600000
 -33.5520000 -10.0270000   3.3260000 -33.6620000  -9.0090000   2.9450000
 -32.6870000 -10.0290000   3.9920000 -33.3030000 -10.9680000   2.1370000
 -32.4990000 -10.5810000   1.5070000 -34.2030000 -11.0390000   1.5230000
 -33.0310000 -11.9690000   2.4780000   8.7290000 -24.0910000  -2.2380000
   9.5050000 -24.4480000  -2.9170000   9.2060000 -23.5450000  -1.4220000
   8.0800000 -23.4050000  -2.7870000   7.9220000 -25.2800000  -1.6950000
   8.5930000 -25.9360000  -1.1360000   7.5200000 -25.8490000  -2.5360000
   6.7670000 -24.8300000  -0.7850000   6.1730000 -24.0840000  -1.3170000
   7.1730000 -24.3440000   0.1040000   5.8290000 -25.9790000  -0.3680000
   5.3820000 -26.4110000  -1.2660000   5.0120000 -25.5600000   0.2240000
   6.4830000 -27.1160000   0.4380000   7.2330000 -27.6220000  -0.1730000
   5.7070000 -27.8500000   0.6650000   7.1270000 -26.6530000   1.7550000
   6.4050000 -26.0600000   2.3210000   7.9840000 -26.0110000   1.5390000
   7.5870000 -27.8440000   2.6170000   8.3110000 -28.4410000   2.0570000
   6.7270000 -28.4800000   2.8340000   8.2240000 -27.3660000   3.9330000
   7.5020000 -26.7600000   4.4840000   9.0630000 -26.7150000   3.6840000
   8.7270000 -28.5010000   4.8480000   9.2470000 -28.0480000   5.6950000
   9.4570000 -29.1090000   4.3090000   7.5950000 -29.4030000   5.3800000
   7.1130000 -29.9090000   4.5410000   6.8360000 -28.7830000   5.8620000
   8.0730000 -30.4750000   6.3790000   8.8300000 -31.0980000   5.8980000
   7.2260000 -31.1210000   6.6210000   8.6560000 -29.9050000   7.6880000
   7.9540000 -29.1800000   8.1060000   9.5890000 -29.3800000   7.4740000
   8.9260000 -31.0160000   8.7230000   9.5240000 -31.8010000   8.2540000
   7.9790000 -31.4710000   9.0170000   9.6670000 -30.5220000   9.9810000
  10.6490000 -30.1430000   9.6910000   9.8320000 -31.3760000  10.6410000
   8.9170000 -29.4240000  10.7600000   7.9290000 -29.7820000  11.0570000
   8.7760000 -28.5440000  10.1300000   9.6810000 -29.0210000  11.9970000
   9.7400000 -29.6990000  13.0060000  10.2930000 -27.8280000  11.8520000
  11.0220000 -27.2320000  12.9700000  11.8350000 -26.6350000  12.5500000
  11.4810000 -28.0080000  13.5890000  10.1170000 -26.3050000  13.8390000
  10.7500000 -25.7620000  14.5460000   9.0880000 -27.1190000  14.6540000
   9.6200000 -27.9070000  15.1920000   8.3520000 -27.5820000  13.9910000
   8.3930000 -26.2820000  15.6170000   7.8440000 -26.9010000  17.0060000
   9.1640000 -26.8860000  17.9250000   9.6730000 -25.6580000  18.4810000
   9.5120000 -24.8400000  17.7740000  10.7500000 -25.7670000  18.6320000
   8.9840000 -25.3440000  19.8300000   7.9220000 -25.1630000  19.6580000
   9.4190000 -24.4270000  20.2310000   9.0630000 -26.3660000  20.9390000
   8.1260000 -27.5010000  20.6950000   7.1190000 -27.0980000  20.5780000
   8.1710000 -28.1860000  21.5430000   8.4350000 -28.0080000  19.7790000
  10.4480000 -26.9060000  21.1000000  11.1310000 -26.0720000  21.2710000
  10.7140000 -27.4400000  20.1870000  10.4590000 -27.5880000  21.9520000
   8.6630000 -25.7140000  22.2210000   9.3600000 -24.9020000  22.4330000
   8.6960000 -26.4580000  23.0180000   7.6500000 -25.3230000  22.1100000
   6.8380000 -25.9690000  17.5760000   7.4580000 -28.3230000  16.7860000
   9.3990000 -25.3450000  13.0070000  10.0940000 -24.3620000  12.4020000
  11.2890000 -24.1710000  12.5560000   9.2320000 -23.5310000  11.4770000
   8.1780000 -23.7450000  11.6620000   9.3970000 -22.4740000  11.6940000
   9.5720000 -23.8070000   9.9990000   9.0260000 -23.1010000   9.3680000
  10.6370000 -23.6230000   9.8430000   9.2130000 -25.2440000   9.5740000
   9.6740000 -25.9520000  10.2660000   8.1320000 -25.3790000   9.6540000
   9.6590000 -25.6130000   8.1480000   9.3410000 -26.6390000   7.9510000
   9.1450000 -24.9720000   7.4280000  11.1860000 -25.5090000   7.9460000
  11.4730000 -24.4610000   7.8350000  11.6890000 -25.8910000   8.8360000
  11.6900000 -26.3170000   6.7340000  12.7790000 -26.2560000   6.6860000
  11.4410000 -27.3670000   6.8980000  11.0980000 -25.8850000   5.3800000
  11.2620000 -26.6900000   4.6610000  10.0150000 -25.7800000   5.4750000
  11.6780000 -24.5850000   4.8640000  11.2030000 -23.6850000   5.2490000
  12.6400000 -24.4740000   3.9540000  12.9490000 -23.4840000   3.6280000
  13.4390000 -25.6180000   3.3570000  14.4780000 -25.5070000   3.6770000
  13.1090000 -26.5930000   3.7220000  13.4340000 -25.6070000   1.8170000
  13.7750000 -24.6260000   1.4800000  14.1820000 -26.3250000   1.4730000
  12.0860000 -25.9120000   1.1220000  11.3770000 -25.1160000   1.3600000
  12.2470000 -25.8690000   0.0430000  11.4230000 -27.2680000   1.4560000
  10.9960000 -27.2100000   2.4590000  10.5860000 -27.4220000   0.7720000
  12.3510000 -28.4980000   1.4030000  13.0710000 -28.4120000   2.2200000
  11.7600000 -29.3950000   1.6020000  13.1400000 -28.6940000   0.0940000
  13.7060000 -27.7860000  -0.1220000  13.8650000 -29.4960000   0.2480000
  12.2990000 -29.0370000  -1.1440000  11.7420000 -29.9590000  -0.9650000
  11.5810000 -28.2380000  -1.3370000  13.2090000 -29.2180000  -2.3730000
  12.6190000 -29.4530000  -3.2610000  13.9180000 -30.0310000  -2.2060000
  13.7730000 -28.3020000  -2.5640000 -20.4240000 -28.5840000  -0.2140000
 -20.2630000 -27.9810000  -1.1100000 -20.5250000 -29.6280000  -0.5170000
 -19.5470000 -28.4900000   0.4300000 -21.6880000 -28.1140000   0.5220000
 -22.5390000 -28.1830000  -0.1590000 -21.5740000 -27.0640000   0.8010000
 -21.9730000 -28.9500000   1.7830000 -21.1550000 -28.8300000   2.4960000
 -22.0160000 -30.0070000   1.5110000 -23.3020000 -28.5460000   2.4470000
 -24.1030000 -28.6080000   1.7080000 -23.2410000 -27.5040000   2.7700000
 -23.6530000 -29.4310000   3.6580000 -22.9170000 -29.2510000   4.4440000
 -23.5820000 -30.4840000   3.3760000 -25.0760000 -29.1480000   4.1800000
 -25.7970000 -29.4640000   3.4230000 -25.2060000 -28.0720000   4.3130000
 -25.4080000 -29.8580000   5.5090000 -25.2310000 -30.9310000   5.4100000
 -26.4700000 -29.7210000   5.7200000 -24.5890000 -29.2970000   6.6860000
 -24.6860000 -28.2090000   6.6970000 -23.5320000 -29.5270000   6.5350000
 -25.0210000 -29.8440000   8.0580000 -24.9110000 -30.9300000   8.0770000
 -26.0750000 -29.6140000   8.2300000 -24.1670000 -29.2130000   9.1710000
 -24.3060000 -28.1310000   9.1450000 -23.1140000 -29.4160000   8.9660000
 -24.5080000 -29.7200000  10.5820000 -24.3680000 -30.8020000  10.6240000
 -25.5590000 -29.5110000  10.7890000 -23.6140000 -29.0440000  11.6410000
 -23.7510000 -27.9610000  11.5920000 -22.5670000 -29.2420000  11.4010000
 -23.8840000 -29.5220000  13.0800000 -23.1420000 -29.0680000  13.7410000
 -23.7410000 -30.6040000  13.1300000 -25.2950000 -29.1540000  13.5820000
 -26.0500000 -29.6550000  12.9720000 -25.4440000 -28.0790000  13.4590000
 -25.5250000 -29.5160000  15.0620000 -24.7740000 -29.0240000  15.6840000
 -26.5020000 -29.1480000  15.3820000 -25.4770000 -31.0060000  15.2970000
 -26.3770000 -31.7700000  14.9880000 -24.3260000 -31.3930000  15.8770000
 -24.1720000 -32.7990000  16.2290000 -24.0090000 -33.3750000  15.3140000
 -25.0870000 -33.1600000  16.7060000 -22.9900000 -33.0180000  17.2180000
 -22.7300000 -34.0790000  17.1970000 -23.3410000 -32.6730000  18.6890000
 -22.4110000 -32.5100000  19.2390000 -23.8730000 -33.5100000  19.1490000
 -24.1810000 -31.4920000  18.7900000 -23.8690000 -30.3110000  19.8420000
 -22.5420000 -29.6140000  19.2450000 -22.5090000 -29.0630000  17.9110000
 -23.0090000 -29.7530000  17.2270000 -21.4640000 -28.9860000  17.5980000
 -23.1820000 -27.6690000  17.8510000 -24.2190000 -27.7590000  18.1810000
 -23.1880000 -27.3330000  16.8130000 -22.5850000 -26.5350000  18.6500000
 -22.7350000 -26.7510000  20.1190000 -23.7920000 -26.9150000  20.3360000
 -22.3650000 -25.8710000  20.6480000 -22.1590000 -27.6340000  20.3970000
 -21.1360000 -26.3510000  18.3310000 -21.0260000 -26.2260000  17.2530000
 -20.5940000 -27.2360000  18.6690000 -20.7730000 -25.4680000  18.8600000
 -23.3100000 -25.2760000  18.3000000 -23.1860000 -25.0790000  17.2340000
 -22.8910000 -24.4570000  18.8860000 -24.3660000 -25.4070000  18.5420000
 -24.9930000 -29.3370000  19.8060000 -23.5120000 -30.9300000  21.1500000
 -21.8050000 -32.2580000  16.8400000 -21.1330000 -32.6060000  15.7280000
 -21.4580000 -33.5380000  15.0150000 -19.9110000 -31.7430000  15.5100000
 -20.1870000 -30.6940000  15.6340000 -19.1930000 -31.9780000  16.2980000
 -19.2400000 -31.9540000  14.1330000 -18.2390000 -31.5180000  14.1650000
 -19.1110000 -33.0220000  13.9440000 -20.0190000 -31.3030000  12.9730000
 -21.0590000 -31.6350000  12.9870000 -20.0240000 -30.2200000  13.1130000
 -19.4080000 -31.6420000  11.6000000 -18.3220000 -31.5360000  11.6480000
 -19.6250000 -32.6860000  11.3650000 -19.9440000 -30.7230000  10.4860000
 -21.0340000 -30.6840000  10.5350000 -19.5790000 -29.7110000  10.6760000
 -19.5020000 -31.1500000   9.0700000 -19.6380000 -30.3070000   8.3890000
 -18.4340000 -31.3760000   9.0790000 -20.2700000 -32.3620000   8.5060000
 -19.7640000 -32.7060000   7.6020000 -20.2360000 -33.1800000   9.2290000
 -21.7110000 -31.9950000   8.2110000 -22.2150000 -31.4300000   8.9910000
 -22.3490000 -32.2240000   7.0690000 -23.3680000 -31.8660000   6.9500000
 -21.8330000 -33.0670000   5.9250000 -21.2130000 -32.4580000   5.2630000
 -21.2250000 -33.8940000   6.2980000 -23.0160000 -33.6210000   5.1150000
 -23.7070000 -34.1310000   5.7900000 -23.5570000 -32.7830000   4.6700000
 -22.5740000 -34.6060000   4.0180000 -21.8210000 -34.1390000   3.3800000
 -22.1080000 -35.4680000   4.4990000 -23.7560000 -35.0950000   3.1620000
 -23.4530000 -35.9950000   2.6220000 -24.5740000 -35.3820000   3.8260000
 -24.2330000 -34.0380000   2.1440000 -24.3500000 -33.0700000   2.6350000
 -23.4560000 -33.9060000   1.3880000 -25.5530000 -34.4100000   1.4370000
 -25.7550000 -33.6670000   0.6630000 -25.4280000 -35.3680000   0.9280000
 -26.7820000 -34.4920000   2.3670000 -27.6630000 -34.6900000   1.7530000
 -26.6730000 -35.3370000   3.0510000 -27.0360000 -33.2120000   3.1830000
 -27.1660000 -32.3550000   2.5200000 -26.2070000 -33.0090000   3.8640000
 -27.9430000 -33.3190000   3.7820000  30.1000000 -33.2850000  -1.0250000
  29.6330000 -33.6900000  -1.9250000  29.3130000 -32.9940000  -0.3270000
  30.6960000 -34.0800000  -0.5710000  30.9760000 -32.0730000  -1.3830000
  30.3580000 -31.3230000  -1.8820000  31.7410000 -32.3840000  -2.0970000
  31.6480000 -31.4240000  -0.1580000  30.8720000 -31.0860000   0.5320000
  32.1950000 -30.5390000  -0.4890000  32.6150000 -32.3770000   0.5750000
  33.3120000 -32.8070000  -0.1480000  32.0480000 -33.2050000   1.0060000
  33.4300000 -31.7080000   1.6980000  34.0960000 -30.9580000   1.2660000
  34.0610000 -32.4720000   2.1560000  32.5450000 -31.0420000   2.7730000
  31.7700000 -31.7410000   3.0940000  32.0410000 -30.1820000   2.3260000
  33.3270000 -30.5580000   4.0090000  32.6690000 -29.9290000   4.6130000
  34.1610000 -29.9330000   3.6840000  33.8560000 -31.7170000   4.8760000
  34.5150000 -32.3360000   4.2650000  33.0290000 -32.3570000   5.1920000
  34.6590000 -31.2480000   6.1050000  35.0790000 -30.2580000   5.9160000
  35.5030000 -31.9290000   6.2360000  33.8680000 -31.2390000   7.4260000
  34.5720000 -31.0800000   8.2460000  33.4280000 -32.2280000   7.5680000
  32.7730000 -30.1590000   7.5170000  32.0600000 -30.2800000   6.6990000
  33.2350000 -29.1760000   7.4070000  32.0120000 -30.2120000   8.8570000
  31.4020000 -29.3110000   8.9520000  32.7320000 -30.2100000   9.6780000
  31.0940000 -31.4460000   8.9590000  31.6820000 -32.3610000   8.8570000
  30.4030000 -31.4230000   8.1140000  30.2620000 -31.5390000  10.2530000
  29.4730000 -32.2690000  10.0600000  29.7610000 -30.5910000  10.4570000
  31.0390000 -32.0330000  11.4970000  31.7500000 -32.8080000  11.2050000
  30.3360000 -32.5040000  12.1880000  31.7700000 -30.9640000  12.2780000
  31.6700000 -29.7640000  12.0920000  32.5510000 -31.5250000  13.2260000
  33.2460000 -30.6710000  14.1820000  33.5400000 -29.7250000  13.7190000
  34.1620000 -31.1810000  14.4900000  32.3980000 -30.4370000  15.4630000
  33.0040000 -29.8780000  16.1800000  31.9850000 -31.7790000  16.1160000
  32.8640000 -32.3990000  16.3080000  31.3200000 -32.3130000  15.4310000
  31.2690000 -31.5340000  17.3600000  32.0360000 -31.1960000  18.7450000
  31.8570000 -32.5610000  19.5830000  30.6270000 -32.8520000  20.2850000
  30.2810000 -31.9550000  20.8040000  30.8260000 -33.6170000  21.0400000
  29.5420000 -33.3470000  19.2970000  29.4740000 -32.6430000  18.4660000
  28.5790000 -33.3550000  19.8090000  29.6980000 -34.7190000  18.6840000
  29.6220000 -35.7810000  19.7330000  30.4630000 -35.6610000  20.4180000
  29.6720000 -36.7540000  19.2430000  28.6760000 -35.6800000  20.2680000
  28.5860000 -34.9410000  17.7160000  28.6420000 -34.1830000  16.9330000
  27.6360000 -34.8710000  18.2480000  28.6900000 -35.9380000  17.2860000
  30.9840000 -34.8610000  17.9420000  31.0200000 -34.0860000  17.1750000
  31.0220000 -35.8550000  17.4940000  31.8030000 -34.7240000  18.6500000
  33.4870000 -31.0240000  18.4680000  31.3060000 -30.0960000  19.4340000
  31.1850000 -29.6840000  15.1810000  31.3000000 -28.3520000  15.0030000
  32.3740000 -27.7820000  14.9000000  29.9880000 -27.5910000  15.0020000
  29.9320000 -27.0410000  15.9440000  30.0210000 -26.8510000  14.1990000
  28.7060000 -28.4440000  14.8700000  28.6990000 -29.2300000  15.6280000
  27.8570000 -27.7930000  15.0900000  28.4940000 -29.0530000  13.4690000
  28.6640000 -28.2810000  12.7160000  29.2260000 -29.8420000  13.2880000
  27.0660000 -29.6000000  13.2740000  26.3520000 -28.8130000  13.5290000
  26.9130000 -29.8180000  12.2150000  26.7340000 -30.8560000  14.1050000
  26.8880000 -30.6400000  15.1640000  25.6720000 -31.0780000  13.9850000
  27.5510000 -32.1110000  13.7260000  28.6070000 -31.9330000  13.9390000
  27.2370000 -32.9330000  14.3730000  27.4040000 -32.5580000  12.2560000
  27.8160000 -31.7900000  11.5980000  28.0010000 -33.4630000  12.1190000
  25.9640000 -32.8580000  11.8950000  25.3630000 -33.2620000  12.7050000
  25.3840000 -32.5900000  10.7290000  24.3260000 -32.8050000  10.6060000
  26.0730000 -32.0810000   9.4770000  27.1210000 -32.3860000   9.4580000
  25.5930000 -32.5360000   8.6080000  25.9770000 -30.5480000   9.3610000
  24.9680000 -30.2350000   9.6390000  26.6650000 -30.0850000  10.0710000
  26.2680000 -30.0080000   7.9490000  25.5560000 -30.4540000   7.2510000
  26.0830000 -28.9320000   7.9530000  27.6950000 -30.2540000   7.4280000
  28.4160000 -29.7850000   8.1010000  27.9040000 -31.3260000   7.4050000
  27.8480000 -29.6700000   6.0100000  27.1170000 -30.1470000   5.3540000
  27.6150000 -28.6040000   6.0370000  29.2610000 -29.8580000   5.4270000
  29.9820000 -29.3870000   6.0990000  29.5030000 -30.9220000   5.3850000
  29.4160000 -29.2390000   4.0240000  29.1530000 -28.1800000   4.0650000
  30.4670000 -29.2950000   3.7310000  28.5690000 -29.9220000   2.9360000
  28.7750000 -29.4690000   1.9630000  27.5030000 -29.8120000   3.1430000
  28.8080000 -30.9860000   2.8770000   0.9970000 -28.9690000  -1.2880000
   1.3720000 -28.3550000  -2.1100000  -0.0640000 -29.1580000  -1.4640000
   1.5280000 -29.9230000  -1.3050000   1.2140000 -28.2510000   0.0570000
   0.6390000 -27.3230000   0.0690000   2.2670000 -27.9740000   0.1360000
   0.8420000 -29.1160000   1.2790000   1.0870000 -28.5680000   2.1920000
   1.4740000 -30.0070000   1.2730000  -0.6320000 -29.5670000   1.3300000
  -0.7570000 -30.2690000   2.1570000  -0.8620000 -30.1290000   0.4220000
  -1.6570000 -28.4210000   1.4760000  -2.6600000 -28.8460000   1.4040000
  -1.5500000 -27.7290000   0.6380000  -1.5660000 -27.6260000   2.7960000
  -2.3000000 -26.8190000   2.7640000  -0.5830000 -27.1590000   2.8840000
  -1.8430000 -28.4890000   4.0420000  -1.0660000 -29.2510000   4.1310000
  -2.7960000 -29.0070000   3.9100000  -1.8810000 -27.6630000   5.3430000
  -2.7090000 -26.9520000   5.3110000  -0.9580000 -27.0840000   5.4180000
  -2.0020000 -28.5510000   6.5970000  -1.7750000 -27.9460000   7.4780000
  -1.2370000 -29.3290000   6.5420000  -3.3900000 -29.2010000   6.7910000
  -3.7890000 -29.5200000   5.8260000  -4.0810000 -28.4540000   7.1860000
  -3.3610000 -30.4350000   7.7190000  -2.8710000 -31.2490000   7.1800000
  -4.3850000 -30.7600000   7.9170000  -2.6190000 -30.2330000   9.0550000
  -1.5970000 -29.9050000   8.8520000  -2.5350000 -31.2000000   9.5560000
  -3.2980000 -29.2460000  10.0250000  -4.1420000 -29.7430000  10.5070000
  -3.6900000 -28.3870000   9.4770000  -2.2990000 -28.7390000  11.0820000
  -1.5810000 -28.0880000  10.5780000  -1.7300000 -29.5780000  11.4890000
  -2.9570000 -27.9560000  12.2370000  -3.7740000 -27.3330000  11.8680000
  -2.2150000 -27.2960000  12.6910000  -3.4560000 -28.8890000  13.3110000
  -4.6150000 -29.2380000  13.4300000  -2.4560000 -29.2990000  14.1150000
  -2.7140000 -30.3560000  15.0840000  -3.1580000 -31.2110000  14.5680000
  -3.4090000 -29.9980000  15.8480000  -1.3890000 -30.8200000  15.7400000
  -1.6170000 -31.6440000  16.4210000  -0.7200000 -29.6620000  16.5180000
  -1.3850000 -29.3520000  17.3290000  -0.5530000 -28.8100000  15.8550000
   0.5520000 -30.0850000  17.0790000   1.2210000 -29.3090000  18.3260000
   0.3660000 -29.8560000  19.5710000   0.5400000 -31.2080000  20.0330000
   1.5850000 -31.3790000  20.3020000   0.2730000 -31.8910000  19.2230000
  -0.3840000 -31.4570000  21.2480000  -0.3240000 -32.5120000  21.5160000
  -1.4140000 -31.2360000  20.9650000  -0.1180000 -30.6910000  22.5240000
   1.3020000 -30.8410000  22.9630000   1.5270000 -31.9030000  23.0650000
   1.4250000 -30.3340000  23.9220000   1.9470000 -30.3830000  22.2120000
  -0.4310000 -29.2380000  22.3730000  -1.4730000 -29.1380000  22.0670000
   0.2250000 -28.8250000  21.6050000  -0.2610000 -28.7400000  23.3280000
  -0.9970000 -31.2380000  23.6000000  -2.0370000 -31.1230000  23.2920000
  -0.8110000 -30.6800000  24.5190000  -0.7580000 -32.2920000  23.7440000
   2.6280000 -29.7740000  18.4740000   0.9580000 -27.8500000  18.1890000
  -0.5050000 -31.2590000  14.6730000   0.2500000 -32.3620000  14.8200000
   0.2570000 -33.0910000  15.7980000   1.0400000 -32.6360000  13.5640000
   1.3510000 -31.6820000  13.1340000   1.9390000 -33.2070000  13.8030000
   0.1550000 -33.4120000  12.5720000   0.0290000 -34.4330000  12.9390000
  -0.8370000 -32.9560000  12.5530000   0.6870000 -33.4620000  11.1290000
   1.7130000 -33.8360000  11.1220000   0.0720000 -34.1810000  10.5850000
   0.6130000 -32.1020000  10.4040000  -0.3990000 -31.7020000  10.4940000
   1.2830000 -31.3940000  10.8950000   0.9880000 -32.1790000   8.9100000
   0.9770000 -31.1670000   8.5000000   2.0100000 -32.5530000   8.8170000
   0.0410000 -33.0690000   8.0760000   0.0640000 -34.0900000   8.4620000
  -0.9850000 -32.7080000   8.1750000   0.4220000 -33.1270000   6.5870000
   1.4530000 -33.4770000   6.5000000  -0.2150000 -33.8720000   6.1070000
   0.2180000 -31.7970000   5.8870000  -0.7640000 -31.3540000   6.0270000
   1.1050000 -31.1800000   5.1120000   0.8360000 -30.2360000   4.6440000
   2.5200000 -31.6500000   4.8330000   3.0850000 -30.8340000   4.3780000
   3.0220000 -31.8890000   5.7730000   2.5760000 -32.8770000   3.9000000
   3.6200000 -33.1640000   3.7600000   2.0800000 -33.7180000   4.3900000
   1.9270000 -32.6590000   2.5220000   0.9070000 -32.2870000   2.6440000
   2.4940000 -31.9060000   1.9710000   1.8870000 -33.9680000   1.7160000
   2.9020000 -34.3620000   1.6350000   1.2960000 -34.7050000   2.2650000
   1.2730000 -33.7810000   0.3160000   0.2610000 -33.3900000   0.4430000
   1.8340000 -33.0290000  -0.2420000   1.1840000 -35.0870000  -0.5010000
   0.9590000 -35.9240000   0.1640000   0.3360000 -34.9960000  -1.1830000
   2.4200000 -35.4210000  -1.3600000   2.1920000 -36.3130000  -1.9470000
   2.5850000 -34.6080000  -2.0710000   3.7220000 -35.6740000  -0.5850000
   4.5070000 -36.0050000  -1.2700000   3.5710000 -36.4470000   0.1710000
   4.0710000 -34.7630000  -0.0950000 -11.5700000 -40.5710000  -2.8500000
 -11.2310000 -41.3850000  -3.4940000 -11.1730000 -40.7380000  -1.8460000
 -11.1640000 -39.6350000  -3.2370000 -13.1060000 -40.5250000  -2.8260000
 -13.4900000 -41.4580000  -2.4100000 -13.4680000 -40.4630000  -3.8550000
 -13.6710000 -39.3260000  -2.0380000 -14.7570000 -39.3270000  -2.1480000
 -13.3110000 -38.4040000  -2.4980000 -13.3240000 -39.2900000  -0.5330000
 -13.7740000 -38.3860000  -0.1180000 -12.2440000 -39.1920000  -0.4050000
 -13.8220000 -40.5250000   0.2490000 -13.2540000 -41.4010000  -0.0710000
 -14.8670000 -40.7140000  -0.0070000 -13.7070000 -40.4030000   1.7850000
 -12.6630000 -40.2440000   2.0630000 -14.0160000 -41.3550000   2.2220000
 -14.5730000 -39.2670000   2.3720000 -15.5970000 -39.3690000   2.0050000
 -14.1980000 -38.3080000   2.0090000 -14.6130000 -39.2000000   3.9110000
 -15.2590000 -38.3660000   4.1930000 -13.6140000 -38.9690000   4.2880000
 -15.1250000 -40.4830000   4.5970000 -14.3640000 -41.2620000   4.5220000
 -16.0200000 -40.8440000   4.0860000 -15.4610000 -40.2310000   6.0790000
 -16.3310000 -39.5720000   6.1340000 -14.6280000 -39.7070000   6.5530000
 -15.7510000 -41.5230000   6.8670000 -14.8580000 -42.1520000   6.8610000
 -16.5490000 -42.0820000   6.3740000 -16.1580000 -41.2260000   8.3240000
 -17.1120000 -40.6950000   8.3290000 -15.4180000 -40.5640000   8.7780000
 -16.2770000 -42.4980000   9.1840000 -15.3220000 -43.0270000   9.1740000
 -17.0210000 -43.1670000   8.7450000 -16.6750000 -42.1720000  10.6380000
 -17.6220000 -41.6280000  10.6300000 -15.9270000 -41.5090000  11.0770000
 -16.8320000 -43.4180000  11.5330000 -17.5650000 -44.1010000  11.0990000
 -17.2060000 -43.1160000  12.5140000 -15.5210000 -44.1450000  11.7160000
 -15.1850000 -45.0970000  11.0360000 -14.7650000 -43.6260000  12.7030000
 -13.4250000 -44.1720000  12.8910000 -12.9140000 -44.1730000  11.9240000
 -13.4980000 -45.2040000  13.2430000 -12.5600000 -43.3360000  13.8760000
 -11.5270000 -43.6550000  13.7160000 -12.9020000 -43.5910000  15.3710000
 -12.1280000 -43.1370000  15.9950000 -12.8870000 -44.6680000  15.5600000
 -14.2060000 -43.0770000  15.7640000 -14.3460000 -41.8660000  16.8330000
 -13.9240000 -42.5810000  18.2130000 -14.8450000 -43.4490000  18.9010000
 -15.2470000 -44.1730000  18.1870000 -15.6730000 -42.8620000  19.3040000
 -14.1020000 -44.2090000  20.0240000 -13.2900000 -44.7940000  19.5900000
 -14.8070000 -44.9000000  20.4900000 -13.4970000 -43.4140000  21.1580000
 -14.4930000 -42.4760000  21.7570000 -14.7730000 -41.7420000  21.0000000
 -14.0320000 -41.9790000  22.6110000 -15.3640000 -43.0520000  22.0740000
 -13.0530000 -44.3610000  22.2220000 -12.3150000 -45.0430000  21.7950000
 -13.9210000 -44.9160000  22.5790000 -12.6100000 -43.7870000  23.0370000
 -12.3000000 -42.6390000  20.7150000 -11.5750000 -43.3320000  20.2870000
 -11.8760000 -42.1240000  21.5790000 -12.6190000 -41.9170000  19.9620000
 -13.3340000 -40.8120000  16.5410000 -15.7800000 -41.4680000  16.9280000
 -12.6720000 -41.9270000  13.5300000 -11.6730000 -41.0830000  13.8510000
 -10.6280000 -41.4230000  14.3850000 -11.9810000 -39.6720000  13.3980000
 -12.7590000 -39.7320000  12.6330000 -12.3980000 -39.1050000  14.2330000
 -10.7370000 -38.9570000  12.8310000 -10.1000000 -38.6440000  13.6600000
 -10.1490000 -39.6610000  12.2380000 -11.0790000 -37.7270000  11.9610000
 -11.5740000 -36.9810000  12.5850000 -10.1470000 -37.2760000  11.6160000
 -11.9730000 -38.0250000  10.7340000 -12.9960000 -38.2030000  11.0720000
 -12.0060000 -37.1390000  10.0970000 -11.5020000 -39.2360000   9.9030000
 -10.4910000 -39.0610000   9.5280000 -11.4630000 -40.1160000  10.5490000
 -12.4270000 -39.5490000   8.7140000 -13.4630000 -39.5660000   9.0580000
 -12.3440000 -38.7520000   7.9720000 -12.0930000 -40.9020000   8.0530000
 -12.7280000 -41.0210000   7.1730000 -11.0620000 -40.8870000   7.6940000
 -12.3510000 -42.0600000   9.0030000 -13.3930000 -42.1800000   9.2910000
 -11.4530000 -42.9190000   9.4780000 -11.7840000 -43.7150000  10.1400000
  -9.9600000 -42.9070000   9.2070000  -9.6390000 -41.9620000   8.7650000
  -9.4260000 -43.0040000  10.1550000  -9.5360000 -44.0710000   8.2890000
  -8.4610000 -44.0040000   8.1110000  -9.7210000 -45.0180000   8.8010000
 -10.2780000 -44.0710000   6.9370000 -11.3480000 -44.2060000   7.1100000
 -10.1420000 -43.0980000   6.4590000  -9.7850000 -45.1810000   5.9910000
  -8.7460000 -44.9840000   5.7200000  -9.8060000 -46.1370000   6.5180000
 -10.6360000 -45.3090000   4.7110000 -10.2070000 -46.0980000   4.0900000
 -11.6420000 -45.6300000   4.9880000 -10.7240000 -44.0060000   3.8870000
 -11.2840000 -43.2550000   4.4480000  -9.7190000 -43.6080000   3.7350000
 -11.3880000 -44.1960000   2.5090000 -11.3470000 -43.2490000   1.9670000
 -10.8180000 -44.9240000   1.9290000 -12.8550000 -44.6520000   2.5920000
 -13.2860000 -44.7130000   1.5900000 -13.4440000 -43.9430000   3.1770000
 -12.9310000 -45.6380000   3.0560000   9.9530000  34.9770000   2.2540000
   9.8090000  34.9250000   1.1730000  10.9140000  34.5210000   2.4980000
   9.9830000  36.0280000   2.5510000   8.8130000  34.2470000   2.9790000
   8.8320000  33.1930000   2.6960000   7.8550000  34.6580000   2.6520000
   8.9290000  34.3770000   4.5080000   8.8230000  35.4280000   4.7850000
   9.9240000  34.0560000   4.8230000   7.8670000  33.5310000   5.2400000
   7.9320000  32.4970000   4.8930000   6.8720000  33.8940000   4.9750000
   8.0280000  33.5410000   6.7740000   9.0360000  33.2130000   7.0370000
   7.3310000  32.8180000   7.2030000   7.7570000  34.9230000   7.3930000
   6.7560000  35.2500000   7.1020000   8.4640000  35.6530000   6.9920000
   7.8630000  34.9230000   8.9280000   8.8940000  34.7190000   9.2230000
   7.2330000  34.1310000   9.3390000   7.4180000  36.2830000   9.4920000
   6.3630000  36.4360000   9.2540000   7.9790000  37.0710000   8.9850000
   7.6130000  36.4580000  11.0100000   7.2050000  37.4310000  11.2900000
   8.6810000  36.4830000  11.2330000   6.9390000  35.3780000  11.8780000
   7.4840000  34.4370000  11.7710000   5.9170000  35.2140000  11.5310000
   6.9050000  35.8130000  13.3560000   6.2840000  36.7080000  13.4380000
   7.9090000  36.0940000  13.6770000   6.3550000  34.7490000  14.3220000
   5.3600000  34.4350000  14.0000000   6.2410000  35.2060000  15.3070000
   7.2750000  33.5210000  14.4500000   8.3030000  33.8590000  14.6010000
   7.2520000  32.9460000  13.5220000   6.8640000  32.6140000  15.6250000
   5.8250000  32.3070000  15.4860000   6.9070000  33.1820000  16.5570000
   7.7440000  31.3560000  15.7590000   7.2850000  30.6740000  16.4780000
   7.7980000  30.8310000  14.8030000   9.1430000  31.6860000  16.2290000
  10.0480000  31.9840000  15.4730000   9.2700000  31.5570000  17.5640000
  10.5600000  31.8020000  18.1960000  11.3700000  31.4540000  17.5510000
  10.5910000  31.1970000  19.1060000  10.8000000  33.2870000  18.6180000
  11.7410000  33.3200000  19.1730000   9.7220000  33.8490000  19.5830000
  10.0900000  34.8060000  19.9610000   9.5850000  33.1770000  20.4340000
   8.4360000  34.0660000  18.9340000   7.5580000  35.3820000  19.2580000
   8.4010000  36.5500000  18.5390000   8.4400000  36.6510000  17.1030000
   8.3360000  35.6520000  16.6740000   9.4130000  37.0490000  16.8070000
   7.3040000  37.5730000  16.5950000   6.3490000  37.1820000  16.9470000
   7.2990000  37.5540000  15.5040000   7.3300000  39.0330000  16.9820000
   8.6270000  39.6750000  16.6120000   9.4250000  39.2080000  17.1920000
   8.5530000  40.7350000  16.8590000   8.7960000  39.5430000  15.5420000
   6.2410000  39.7450000  16.2530000   5.2850000  39.2980000  16.5300000
   6.4120000  39.6560000  15.1800000   6.2690000  40.7930000  16.5550000
   7.0950000  39.2250000  18.4410000   6.1420000  38.7630000  18.7030000
   7.0740000  40.2970000  18.6420000   7.9100000  38.7480000  18.9880000
   6.2390000  35.2510000  18.5840000   7.5850000  35.6270000  20.7280000
  10.9170000  34.1830000  17.4730000  12.0770000  34.1980000  16.7850000
  13.0240000  33.4700000  17.0360000  12.1120000  35.2490000  15.6980000
  12.0490000  36.2350000  16.1640000  13.0710000  35.1830000  15.1800000
  10.9550000  35.0820000  14.6940000  10.9680000  34.0690000  14.2870000
  10.0080000  35.2030000  15.2230000  10.9880000  36.0810000  13.5240000
  10.0480000  35.9880000  12.9760000  11.0440000  37.1020000  13.9050000
  12.1460000  35.8180000  12.5470000  13.0990000  36.0410000  13.0320000
  12.1530000  34.7580000  12.2850000  12.0140000  36.6450000  11.2550000
  11.0460000  36.4360000  10.7960000  12.0420000  37.7100000  11.4960000
  13.1360000  36.3100000  10.2550000  14.1020000  36.5370000  10.7110000
  13.1280000  35.2370000  10.0550000  13.0200000  37.0630000   8.9170000
  13.0130000  38.1370000   9.1140000  13.9100000  36.8370000   8.3270000
  11.7900000  36.6330000   8.1400000  11.4310000  35.6320000   8.3660000
  11.1250000  37.3690000   7.2550000  10.2500000  36.9440000   6.7710000
  11.4870000  38.7720000   6.8110000  12.2260000  39.2200000   7.4790000
  11.9430000  38.7280000   5.8200000  10.2570000  39.7010000   6.7500000
   9.8320000  39.7830000   7.7520000  10.5920000  40.7010000   6.4670000
   9.1460000  39.2570000   5.7720000   8.7470000  38.2890000   6.0830000
   8.3270000  39.9760000   5.8370000   9.6120000  39.1750000   4.3040000
  10.0030000  40.1490000   4.0030000  10.4250000  38.4520000   4.2150000
   8.4800000  38.7630000   3.3440000   8.1250000  37.7650000   3.6080000
   7.6430000  39.4550000   3.4600000   8.9550000  38.7710000   1.8780000
   9.2510000  39.7870000   1.6080000   9.8430000  38.1420000   1.7860000
   7.9050000  38.2850000   0.8630000   8.3730000  38.2330000  -0.1220000
   7.5870000  37.2720000   1.1210000   6.6810000  39.2100000   0.7740000
   6.0300000  38.8870000  -0.0410000   6.9920000  40.2360000   0.5720000
   6.1080000  39.1910000   1.7030000  15.5490000  20.4010000   2.2630000
  16.0120000  21.0370000   1.5050000  15.3820000  19.4120000   1.8320000
  14.5820000  20.8310000   2.5320000  16.4530000  20.2960000   3.5000000
  16.5820000  21.2990000   3.9130000  17.4410000  19.9350000   3.2050000
  15.8520000  19.3540000   4.5600000  15.8590000  18.3310000   4.1780000
  14.8070000  19.6300000   4.7200000  16.5750000  19.3940000   5.9200000
  17.6060000  19.0500000   5.8080000  16.0700000  18.7020000   6.5970000
  16.5560000  20.8080000   6.5290000  15.5750000  21.2500000   6.3440000
  17.2940000  21.4370000   6.0260000  16.8050000  20.8490000   8.0440000
  16.0200000  20.2720000   8.5370000  16.6990000  21.8830000   8.3800000
  18.1900000  20.3240000   8.4680000  18.9560000  20.8420000   7.8870000
  18.2740000  19.2580000   8.2440000  18.4560000  20.5640000   9.9650000
  18.3180000  21.6260000  10.1770000  19.4980000  20.3260000  10.1860000
  17.5500000  19.7220000  10.8850000  17.8540000  18.6760000  10.8080000
  16.5100000  19.7780000  10.5560000  17.6060000  20.1540000  12.3610000
  18.6480000  20.2670000  12.6690000  17.1730000  19.3590000  12.9730000
  16.8290000  21.4620000  12.6270000  15.7830000  21.3270000  12.3440000
  17.2370000  22.2700000  12.0170000  16.9120000  21.8560000  14.1080000
  17.9620000  21.9800000  14.3790000  16.5080000  21.0390000  14.7090000
  16.1450000  23.1360000  14.4770000  15.0750000  22.9450000  14.3680000
  16.4090000  23.9460000  13.7930000  16.4810000  23.5580000  15.9240000
  17.4140000  24.1250000  15.9170000  16.6580000  22.6660000  16.5290000
  15.3900000  24.4010000  16.6120000  15.2040000  25.3120000  16.0380000
  15.7360000  24.6950000  17.6050000  14.1090000  23.6160000  16.7580000
  13.0670000  23.9430000  16.2210000  14.2730000  22.4870000  17.4760000
  13.1360000  21.5890000  17.6120000  12.6210000  21.4960000  16.6530000
  12.4380000  21.9920000  18.3500000  13.6040000  20.1760000  18.0280000
  12.7040000  19.5720000  18.1720000  14.3840000  20.2290000  19.3610000
  13.6870000  20.4580000  20.1710000  15.1310000  21.0260000  19.3240000
  15.0430000  18.9640000  19.6430000  15.9160000  18.7550000  20.9860000
  17.4190000  19.0780000  20.5170000  17.8350000  20.3990000  20.1180000
  18.8570000  20.5610000  20.4680000  17.1950000  21.1530000  20.5840000
  17.7780000  20.5150000  18.5730000  18.0750000  21.5260000  18.2900000
  16.7540000  20.3530000  18.2320000  18.6410000  19.5850000  17.7550000
  18.2030000  18.1620000  17.8830000  18.4000000  17.8350000  18.9050000
  18.7690000  17.5570000  17.1730000  17.1330000  18.1100000  17.6780000
  18.5180000  19.9610000  16.3200000  18.8630000  20.9890000  16.2010000
  17.4700000  19.8670000  16.0320000  19.1360000  19.2840000  15.7290000
  20.0790000  19.7040000  18.1370000  20.3860000  20.7430000  18.0080000
  20.6560000  19.0500000  17.4820000  20.1900000  19.3960000  19.1780000
  15.5040000  19.7590000  22.0050000  15.8520000  17.3150000  21.3420000
  14.4410000  19.6230000  16.9640000  14.1070000  18.4330000  16.4260000
  13.2680000  17.6800000  16.8860000  14.8780000  18.1290000  15.1600000
  14.2330000  18.3890000  14.3180000  15.7590000  18.7720000  15.1020000
  15.3110000  16.6490000  15.0570000  16.0760000  16.4510000  15.8100000
  14.4640000  15.9980000  15.2840000  15.8610000  16.2600000  13.6670000
  16.7010000  16.9070000  13.4060000  16.2560000  15.2440000  13.7380000
  14.7960000  16.2840000  12.5470000  14.8960000  15.3770000  11.9460000
  13.8020000  16.2560000  12.9980000  14.8840000  17.4990000  11.6030000
  14.9510000  18.4160000  12.1910000  15.7900000  17.4260000  10.9980000
  13.6560000  17.5880000  10.6770000  13.5980000  16.6870000  10.0640000
  12.7540000  17.6170000  11.2910000  13.6750000  18.8220000   9.7550000
  14.0360000  19.6810000  10.3250000  14.3760000  18.6580000   8.9330000
  12.2770000  19.1320000   9.2630000  11.5690000  19.3680000  10.0540000
  11.8550000  19.1880000   8.0040000  10.8190000  19.4600000   7.8210000
  12.6430000  18.8870000   6.7460000  12.9050000  19.8300000   6.2620000
  13.5700000  18.3500000   6.9580000  11.7750000  18.0690000   5.7700000
  11.6990000  17.0410000   6.1310000  10.7640000  18.4820000   5.7700000
  12.2960000  18.0810000   4.3200000  12.3650000  19.1190000   3.9870000
  13.3010000  17.6560000   4.2770000  11.3600000  17.3040000   3.3690000
  11.6450000  16.2500000   3.3620000  10.3400000  17.3560000   3.7530000
  11.3360000  17.8540000   1.9290000  10.6030000  17.2890000   1.3490000
  10.9840000  18.8880000   1.9570000  12.6890000  17.8140000   1.1990000
  13.4460000  18.3220000   1.7990000  13.0040000  16.7750000   1.0770000
  12.5910000  18.4930000  -0.1810000  11.8360000  17.9810000  -0.7810000
  12.2600000  19.5250000  -0.0540000  13.9230000  18.4880000  -0.9470000
  13.7910000  18.9320000  -1.9360000  14.2890000  17.4680000  -1.0760000
  14.6760000  19.0670000  -0.4080000 -43.9130000 -15.6870000  -1.7320000
 -42.9600000 -15.9430000  -2.1990000 -44.0950000 -14.6220000  -1.8860000
 -44.7040000 -16.2550000  -2.2260000 -43.8760000 -16.0070000  -0.2310000
 -43.0500000 -15.4610000   0.2290000 -43.6620000 -17.0700000  -0.1010000
 -45.2000000 -15.6560000   0.4790000 -46.0190000 -16.1770000  -0.0210000
 -45.3970000 -14.5850000   0.3900000 -45.1920000 -16.0630000   1.9640000
 -44.8520000 -17.0990000   2.0340000 -46.2120000 -16.0370000   2.3540000
 -44.3020000 -15.1460000   2.8270000 -44.7390000 -14.1460000   2.8560000
 -43.3190000 -15.0500000   2.3610000 -44.0960000 -15.6510000   4.2670000
 -45.0490000 -15.6780000   4.7990000 -43.4540000 -14.9370000   4.7870000
 -43.4350000 -17.0410000   4.3100000 -42.6940000 -17.1060000   3.5100000
 -44.1850000 -17.8120000   4.1220000 -42.7290000 -17.3240000   5.6470000
 -43.4540000 -17.2990000   6.4630000 -41.9930000 -16.5390000   5.8310000
 -42.0150000 -18.6880000   5.6170000 -41.4590000 -18.7770000   4.6820000
 -42.7550000 -19.4920000   5.6240000 -41.0200000 -18.8710000   6.7760000
 -40.2590000 -18.0910000   6.7050000 -40.5060000 -19.8250000   6.6390000
 -41.6390000 -18.8330000   8.1860000 -42.0950000 -17.8570000   8.3640000
 -40.8310000 -18.9420000   8.9130000 -42.6760000 -19.9470000   8.4260000
 -42.2850000 -20.8900000   8.0390000 -43.5910000 -19.7280000   7.8720000
 -43.0080000 -20.1390000   9.9170000 -42.0840000 -20.3260000  10.4680000
 -43.6270000 -21.0320000  10.0270000 -43.7430000 -18.9420000  10.5460000
 -44.6710000 -18.7630000  10.0000000 -43.1270000 -18.0440000  10.4610000
 -44.0560000 -19.2040000  12.0330000 -43.1240000 -19.3680000  12.5780000
 -44.6500000 -20.1150000  12.1330000 -44.8030000 -18.0730000  12.7000000
 -45.2280000 -17.0840000  12.1240000 -44.9530000 -18.3100000  14.0210000
 -45.5160000 -17.2680000  14.8740000 -46.0960000 -17.7600000  15.6600000
 -46.1950000 -16.6220000  14.3120000 -44.3910000 -16.4320000  15.5430000
 -43.8190000 -17.1070000  16.1850000 -45.0040000 -15.2730000  16.3750000
 -46.0920000 -15.3610000  16.4170000 -44.7610000 -14.3210000  15.8950000
 -44.4880000 -15.2500000  17.7370000 -44.9640000 -16.3080000  18.8700000
 -43.5770000 -16.7960000  19.5260000 -42.7770000 -15.8880000  20.3130000
 -42.3800000 -16.4210000  21.1810000 -43.3940000 -15.0620000  20.6760000
 -41.6260000 -15.3350000  19.4430000 -41.2190000 -14.4410000  19.9170000
 -42.0250000 -15.0550000  18.4670000 -40.4450000 -16.2340000  19.1740000
 -40.8420000 -17.4900000  18.4800000 -41.5340000 -18.0360000  19.1230000
 -39.9450000 -18.0790000  18.2850000 -41.3330000 -17.2150000  17.5450000
 -39.4890000 -15.5020000  18.3010000 -39.1740000 -14.5870000  18.8060000
 -39.9950000 -15.2760000  17.3600000 -38.6290000 -16.1490000  18.1220000
 -39.7310000 -16.5820000  20.4380000 -39.4390000 -15.6580000  20.9390000
 -38.8480000 -17.1670000  20.1790000 -40.3990000 -17.1700000  21.0690000
 -45.7580000 -15.5810000  19.8970000 -45.5740000 -17.4860000  18.2030000
 -43.5210000 -15.8840000  14.5070000 -42.2330000 -15.6350000  14.8130000
 -41.7640000 -15.7190000  15.9320000 -41.4060000 -15.2460000  13.6110000
 -40.4250000 -15.7160000  13.7050000 -41.8740000 -15.6350000  12.7050000
 -41.2470000 -13.7160000  13.5130000 -42.2040000 -13.2690000  13.2360000
 -40.9850000 -13.3190000  14.4970000 -40.1550000 -13.2720000  12.5180000
 -40.1450000 -12.1810000  12.4780000 -39.1830000 -13.5810000  12.9070000
 -40.3020000 -13.8190000  11.0830000 -39.4910000 -13.4100000  10.4770000
 -40.1810000 -14.9050000  11.0890000 -41.6470000 -13.4580000  10.4260000
 -42.4610000 -13.9390000  10.9730000 -41.7940000 -12.3790000  10.4980000
 -41.7130000 -13.8900000   8.9470000 -40.9480000 -13.3580000   8.3780000
 -41.4820000 -14.9550000   8.8770000 -43.0910000 -13.6450000   8.2990000
 -43.0720000 -14.0490000   7.2850000 -43.8370000 -14.2110000   8.8600000
 -43.4710000 -12.1750000   8.3050000 -43.2880000 -11.6570000   9.2430000
 -43.9550000 -11.4810000   7.2780000 -44.1660000 -10.4230000   7.4090000
 -44.3150000 -12.0340000   5.9150000 -44.4240000 -13.1210000   5.9400000
 -45.2890000 -11.6350000   5.6250000 -43.2890000 -11.6410000   4.8360000
 -43.6600000 -11.9750000   3.8650000 -43.2090000 -10.5530000   4.7950000
 -41.8940000 -12.2480000   5.0780000 -41.4760000 -11.8500000   6.0050000
 -41.9910000 -13.3290000   5.1990000 -40.9260000 -11.9490000   3.9200000
 -41.3500000 -12.3190000   2.9840000 -40.8300000 -10.8670000   3.8070000
 -39.5250000 -12.5560000   4.1340000 -38.8680000 -12.2170000   3.3300000
 -39.1070000 -12.1670000   5.0650000 -39.4890000 -14.0970000   4.1730000
 -38.4470000 -14.4080000   4.2780000 -40.0190000 -14.4570000   5.0570000
 -40.0770000 -14.7640000   2.9150000 -41.1440000 -14.5420000   2.8490000
 -39.5960000 -14.3520000   2.0260000 -39.8920000 -16.2890000   2.9210000
 -40.3880000 -16.7320000   2.0550000 -40.3200000 -16.7240000   3.8270000
 -38.8320000 -16.5460000   2.8790000  39.5550000 -17.8870000  -0.0240000
  40.0460000 -17.1560000  -0.6700000  38.6350000 -17.4470000   0.3690000
  39.2810000 -18.7580000  -0.6230000  40.4870000 -18.2920000   1.1240000
  40.6600000 -17.4210000   1.7590000  41.4510000 -18.6050000   0.7160000
  39.8830000 -19.4450000   1.9430000  39.8500000 -20.3420000   1.3210000
  38.8520000 -19.1980000   2.2040000  40.6610000 -19.7530000   3.2340000
  41.6970000 -20.0000000   2.9920000  40.2260000 -20.6390000   3.7010000
  40.6370000 -18.5820000   4.2320000  39.7260000 -18.0010000   4.0740000
  41.4830000 -17.9230000   4.0280000  40.6720000 -19.0420000   5.7030000
  41.4770000 -19.7670000   5.8390000  39.7360000 -19.5530000   5.9380000
  40.8860000 -17.8780000   6.6930000  41.9250000 -17.5510000   6.6160000
  40.7450000 -18.2420000   7.7130000  39.9840000 -16.6500000   6.4580000
  40.1840000 -16.2460000   5.4630000  40.2780000 -15.8700000   7.1640000
  38.4680000 -16.8980000   6.5940000  38.1800000 -17.8070000   6.0620000
  37.9500000 -16.0670000   6.1100000  38.0010000 -16.9680000   8.0600000
  38.3900000 -16.0940000   8.5870000  38.4220000 -17.8500000   8.5470000
  36.4660000 -16.9570000   8.1950000  36.0630000 -16.1830000   7.5390000
  36.2050000 -16.6570000   9.2120000  35.7710000 -18.2960000   7.8660000
  36.0300000 -18.6030000   6.8510000  34.6920000 -18.1310000   7.8780000
  36.0950000 -19.4480000   8.8420000  37.1430000 -19.7370000   8.7370000
  35.4980000 -20.3190000   8.5620000  35.8140000 -19.0890000  10.3150000
  34.8440000 -18.5940000  10.3960000  36.5740000 -18.3780000  10.6460000
  35.8240000 -20.3190000  11.2470000  36.6980000 -20.9410000  11.0430000
  34.9420000 -20.9340000  11.0520000  35.8470000 -19.9440000  12.7140000
  35.9620000 -18.8060000  13.1310000  35.7260000 -21.0300000  13.5060000
  35.8330000 -20.8650000  14.9540000  35.2400000 -21.6570000  15.4180000
  35.4160000 -19.9050000  15.2670000  37.2960000 -21.0170000  15.4530000
  37.6280000 -22.0410000  15.2610000  37.3580000 -20.7650000  16.9790000
  36.7740000 -21.5200000  17.5110000  36.9270000 -19.7820000  17.1850000
  38.7300000 -20.7860000  17.4640000  39.1430000 -20.0310000  18.8340000
  39.1400000 -18.4820000  18.4030000  40.1910000 -17.9560000  17.5730000
  40.2060000 -18.5140000  16.6330000  41.1570000 -18.0850000  18.0680000
  39.9180000 -16.4600000  17.2850000  38.9490000 -16.3610000  16.7930000
  40.6850000 -16.0970000  16.6000000  39.9110000 -15.4920000  18.4490000
  41.1170000 -15.6670000  19.3130000  41.0760000 -16.6600000  19.7630000
  41.1030000 -14.9040000  20.0920000  42.0090000 -15.5630000  18.6950000
  39.9240000 -14.0970000  17.9110000  39.0460000 -13.9620000  17.2790000
  40.8350000 -13.9560000  17.3280000  39.9030000 -13.3990000  18.7490000
  38.6840000 -15.6490000  19.2870000  37.8050000 -15.4960000  18.6590000
  38.7110000 -14.9140000  20.0930000  38.6770000 -16.6600000  19.6970000
  38.0660000 -20.2280000  19.8440000  40.5350000 -20.4220000  19.1940000
  38.1660000 -20.0430000  14.8000000  39.1260000 -20.4730000  13.9570000
  39.2600000 -21.6250000  13.5850000  40.0350000 -19.3460000  13.5200000
  40.0520000 -18.5990000  14.3160000  41.0570000 -19.7170000  13.4160000
  39.5720000 -18.6590000  12.2180000  38.4860000 -18.7230000  12.1310000
  39.8100000 -17.5970000  12.3050000  40.2320000 -19.1660000  10.9170000
  39.9200000 -18.5020000  10.1090000  41.3170000 -19.0730000  10.9990000
  39.8730000 -20.6110000  10.5250000  40.3480000 -21.3100000  11.2170000
  38.7920000 -20.7370000  10.6100000  40.3160000 -20.9410000   9.0850000
  39.8570000 -20.2260000   8.3990000  41.3980000 -20.8150000   9.0070000
  39.9470000 -22.3650000   8.6240000  40.3750000 -22.5320000   7.6330000
  40.4020000 -23.0930000   9.2980000  38.4260000 -22.6040000   8.5580000
  38.0120000 -22.5200000   9.5650000  37.9480000 -21.8200000   7.9670000
  38.1090000 -23.9930000   8.0420000  38.2210000 -24.7550000   8.8080000
  37.6650000 -24.3940000   6.8500000  37.4740000 -25.4590000   6.7460000
  37.4260000 -23.6540000   5.5400000  37.9740000 -24.1870000   4.7600000
  36.3700000 -23.7610000   5.2850000  37.8060000 -22.1630000   5.4500000
  37.1440000 -21.5780000   6.0920000  38.8320000 -22.0290000   5.7990000
  37.7040000 -21.6040000   4.0180000  38.0480000 -20.5680000   4.0340000
  38.3740000 -22.1670000   3.3650000  36.2760000 -21.6210000   3.4460000
  35.8960000 -22.6440000   3.4060000  35.6390000 -21.0620000   4.1350000
  36.1530000 -20.9840000   2.0480000  35.0940000 -20.9170000   1.7920000
  36.5390000 -19.9630000   2.0830000  36.8770000 -21.7700000   0.9380000
  37.9430000 -21.8370000   1.1660000  36.4850000 -22.7880000   0.9020000
  36.7010000 -21.1050000  -0.4410000  35.6370000 -21.0140000  -0.6680000
  37.1190000 -20.0970000  -0.4120000  37.3800000 -21.9000000  -1.5660000
  37.2890000 -21.3650000  -2.5140000  36.9130000 -22.8800000  -1.6780000
  38.4410000 -22.0420000  -1.3480000  -8.1170000 -47.0330000   1.6880000
  -8.3850000 -47.5070000   0.7410000  -9.0070000 -47.0010000   2.3200000
  -7.3670000 -47.6560000   2.1790000  -7.5810000 -45.6120000   1.4390000
  -8.3690000 -45.0160000   0.9740000  -6.7460000 -45.6550000   0.7370000
  -7.1260000 -44.9220000   2.7370000  -6.2700000 -45.4600000   3.1500000
  -7.9320000 -44.9840000   3.4730000  -6.7550000 -43.4420000   2.5170000
  -7.5830000 -42.9460000   2.0060000  -5.8840000 -43.3750000   1.8620000
  -6.4750000 -42.6880000   3.8320000  -7.3310000 -42.8110000   4.4980000
  -6.3930000 -41.6220000   3.6070000  -5.1930000 -43.1530000   4.5520000
  -4.3230000 -42.8820000   3.9510000  -5.1990000 -44.2410000   4.6370000
  -5.0410000 -42.5710000   5.9700000  -4.1810000 -43.0530000   6.4400000
  -5.9220000 -42.8500000   6.5530000  -4.8560000 -41.0390000   6.0320000
  -5.5980000 -40.5530000   5.3950000  -3.8700000 -40.7720000   5.6450000
  -5.0240000 -40.4830000   7.4600000  -6.0270000 -40.7490000   7.7980000
  -4.9790000 -39.3920000   7.4300000  -3.9690000 -40.9980000   8.4650000
  -3.0170000 -40.5010000   8.2660000  -3.8040000 -42.0680000   8.3230000
  -4.3530000 -40.7790000   9.9400000  -4.4730000 -39.7110000  10.1380000
  -3.5300000 -41.1360000  10.5620000  -5.6370000 -41.5370000  10.3310000
  -5.5900000 -42.5490000   9.9240000  -6.5010000 -41.0460000   9.8770000
  -5.8650000 -41.6350000  11.8510000  -5.8580000 -40.6420000  12.3070000
  -5.0530000 -42.2100000  12.3010000  -7.2080000 -42.3270000  12.1360000
  -7.2080000 -43.2810000  11.6050000  -8.0240000 -41.7310000  11.7220000
  -7.4790000 -42.5800000  13.6320000  -7.7980000 -41.6600000  14.1260000
  -6.5600000 -42.9130000  14.1190000  -8.5270000 -43.6550000  13.8300000
  -9.2330000 -44.0940000  12.9350000  -8.5500000 -44.1310000  15.0910000
  -9.0530000 -45.4870000  15.3060000  -9.9030000 -45.6830000  14.6470000
  -9.4090000 -45.5620000  16.3370000  -7.9470000 -46.5700000  15.0920000
  -8.4250000 -47.5500000  15.0070000  -6.9600000 -46.6680000  16.2850000
  -6.1630000 -47.3660000  16.0190000  -7.4830000 -47.0670000  17.1580000
  -6.3890000 -45.3760000  16.6330000  -4.7970000 -45.1670000  16.8450000
  -4.5750000 -45.7610000  18.3330000  -3.9330000 -44.9910000  19.3700000
  -3.0530000 -44.4940000  18.9540000  -3.5910000 -45.6760000  20.1500000
  -4.8950000 -43.9400000  19.9780000  -5.2140000 -43.2510000  19.1940000
  -4.3460000 -43.3670000  20.7260000  -6.1550000 -44.4120000  20.6610000
  -6.7630000 -43.2570000  21.3840000  -6.0540000 -42.9000000  22.1320000
  -7.6830000 -43.5920000  21.8660000  -6.9800000 -42.4690000  20.6600000
  -7.1590000 -44.9120000  19.6770000  -6.7450000 -45.7920000  19.1840000
  -7.3430000 -44.1290000  18.9400000  -8.0780000 -45.1680000  20.2070000
  -5.8690000 -45.4860000  21.6580000  -5.4770000 -46.3540000  21.1260000
  -6.8000000 -45.7440000  22.1660000  -5.1370000 -45.1110000  22.3740000
  -4.0320000 -46.0180000  15.8890000  -4.5380000 -43.7000000  16.8630000
  -7.1890000 -46.3220000  13.8710000  -7.7290000 -46.6690000  12.6870000
  -8.7660000 -47.2950000  12.5590000  -6.8980000 -46.1780000  11.5270000
  -7.5700000 -45.8760000  10.7200000  -6.3270000 -45.3000000  11.8360000
  -5.9290000 -47.2690000  11.0460000  -5.3210000 -47.6010000  11.8900000
  -6.5010000 -48.1350000  10.7070000  -4.9890000 -46.8050000   9.9160000
  -4.2650000 -46.0940000  10.3190000  -4.4240000 -47.6760000   9.5740000
  -5.7160000 -46.1510000   8.7220000  -6.5890000 -46.7470000   8.4460000
  -6.0810000 -45.1670000   9.0240000  -4.8280000 -45.9860000   7.4770000
  -5.3580000 -45.3580000   6.7580000  -3.9050000 -45.4680000   7.7470000
  -4.5000000 -47.3320000   6.8010000  -3.9420000 -47.9720000   7.4880000
  -5.4330000 -47.8440000   6.5580000  -3.6830000 -47.1540000   5.5140000
  -4.2090000 -46.4750000   4.8390000  -2.7310000 -46.6830000   5.7690000
  -3.4150000 -48.4960000   4.8630000  -2.8320000 -49.1890000   5.4640000
  -3.7740000 -48.8500000   3.6340000  -3.4860000 -49.8290000   3.2590000
  -4.6510000 -48.0330000   2.7110000  -5.1830000 -48.6990000   2.0280000
  -5.4160000 -47.5240000   3.3000000  -3.8560000 -46.9850000   1.9090000
  -4.5570000 -46.3610000   1.3510000  -3.3390000 -46.3230000   2.6070000
  -2.8180000 -47.5740000   0.9340000  -2.2730000 -46.7500000   0.4700000
  -2.0850000 -48.1590000   1.4930000  -3.4120000 -48.4620000  -0.1760000
  -2.5890000 -48.8000000  -0.8090000  -3.8610000 -49.3540000   0.2660000
  -4.4620000 -47.7520000  -1.0500000  -5.3800000 -47.6110000  -0.4740000
  -4.0980000 -46.7610000  -1.3280000  -4.7670000 -48.5630000  -2.3240000
  -3.8280000 -48.8470000  -2.8040000  -5.2730000 -49.4890000  -2.0420000
  -5.6210000 -47.8040000  -3.3560000  -5.0540000 -46.9530000  -3.7400000
  -5.8150000 -48.4670000  -4.2020000  -6.9600000 -47.3000000  -2.8000000
  -7.5610000 -46.8800000  -3.6100000  -6.8030000 -46.5220000  -2.0490000
  -7.5200000 -48.1170000  -2.3410000 -37.2220000 -11.3120000   0.9310000
 -37.4130000 -12.0600000   0.1580000 -36.9770000 -11.8300000   1.8610000
 -36.3610000 -10.7140000   0.6260000 -38.4560000 -10.4150000   1.1170000
 -39.3060000 -11.0290000   1.4220000 -38.7140000  -9.9710000   0.1530000
 -38.2290000  -9.2930000   2.1500000 -37.3740000  -8.6900000   1.8400000
 -37.9950000  -9.7300000   3.1230000 -39.4740000  -8.3950000   2.2700000
 -40.3060000  -8.9970000   2.6420000 -39.7530000  -8.0540000   1.2710000
 -39.3040000  -7.1500000   3.1630000 -40.1870000  -6.5210000   3.0350000
 -38.4560000  -6.5640000   2.8020000 -39.1250000  -7.4190000   4.6720000
 -39.0980000  -6.4540000   5.1820000 -38.1620000  -7.9020000   4.8490000
 -40.2510000  -8.2780000   5.2820000 -40.0450000  -9.3300000   5.0740000
 -41.1970000  -8.0330000   4.7940000 -40.4400000  -8.0870000   6.8000000
 -41.2230000  -8.7690000   7.1390000 -40.8060000  -7.0740000   6.9820000
 -39.1810000  -8.3100000   7.6610000 -39.4590000  -8.1540000   8.7060000
 -38.4330000  -7.5540000   7.4160000 -38.5600000  -9.7120000   7.4990000
 -38.2040000  -9.8240000   6.4720000 -39.3240000 -10.4760000   7.6600000
 -37.3790000  -9.9610000   8.4590000 -36.6640000  -9.1400000   8.3750000
 -36.8610000 -10.8720000   8.1530000 -37.8120000 -10.1260000   9.9270000
 -38.5350000 -10.9410000   9.9970000 -38.3070000  -9.2160000  10.2730000
 -36.6180000 -10.4290000  10.8510000 -35.9050000  -9.6030000  10.8040000
 -36.1070000 -11.3290000  10.5030000 -37.0750000 -10.6320000  12.3050000
 -37.7630000 -11.4790000  12.3450000 -37.6250000  -9.7470000  12.6320000
 -35.8990000 -10.8800000  13.2710000 -35.2030000 -10.0400000  13.2150000
 -35.3510000 -11.7810000  12.9860000 -36.3690000 -11.0220000  14.6990000
 -37.4230000 -11.5420000  15.0210000 -35.4770000 -10.5230000  15.5770000
 -35.8980000 -10.2860000  16.9530000 -35.0280000 -10.4170000  17.6010000
 -36.6640000 -11.0000000  17.2630000 -36.4050000  -8.8290000  17.1030000
 -35.5480000  -8.1700000  16.9460000 -36.9810000  -8.5990000  18.5190000
 -36.1750000  -8.7050000  19.2490000 -37.7530000  -9.3440000  18.7330000
 -37.5670000  -7.2730000  18.6320000 -38.0370000  -6.6790000  20.0570000
 -37.7280000  -5.1080000  19.9060000 -36.3760000  -4.6190000  19.7830000
 -35.6810000  -5.3090000  20.2680000 -36.3040000  -3.6560000  20.2940000
 -36.0040000  -4.4560000  18.2880000 -36.1080000  -5.4170000  17.7820000
 -34.9580000  -4.1520000  18.2240000 -36.7770000  -3.4580000  17.4570000
 -38.1690000  -3.9300000  17.1940000 -38.1090000  -4.9160000  16.7310000
 -38.6700000  -3.2210000  16.5340000 -38.6920000  -3.9990000  18.1490000
 -36.8310000  -2.1200000  18.1200000 -35.8120000  -1.7900000  18.3260000
 -37.3960000  -2.2170000  19.0480000 -37.3300000  -1.4150000  17.4520000
 -36.0910000  -3.2970000  16.1400000 -35.0840000  -2.9130000  16.3130000
 -36.6610000  -2.5990000  15.5260000 -36.0430000  -4.2740000  15.6570000
 -39.5100000  -6.8510000  20.1670000 -37.1700000  -7.2290000  21.1370000
 -37.4470000  -8.5770000  16.1140000 -37.4560000  -7.3970000  15.4670000
 -36.6300000  -6.5150000  15.6280000 -38.6090000  -7.2870000  14.4940000
 -38.9320000  -8.2880000  14.2020000 -39.4470000  -6.8080000  15.0040000
 -38.2220000  -6.4830000  13.2340000 -37.8330000  -5.5080000  13.5360000
 -37.4200000  -7.0040000  12.7070000 -39.4010000  -6.2570000  12.2700000
 -39.7880000  -7.2180000  11.9260000 -40.2060000  -5.7430000  12.8000000
 -38.9640000  -5.4100000  11.0610000 -38.4940000  -4.4980000  11.4360000
 -38.2100000  -5.9590000  10.4930000 -40.1320000  -5.0340000  10.1280000
 -40.6410000  -5.9460000   9.8100000 -40.8590000  -4.4330000  10.6780000
 -39.6760000  -4.2610000   8.8730000 -39.0060000  -4.8990000   8.2940000
 -40.5480000  -4.0620000   8.2470000 -38.9640000  -2.9270000   9.1840000
 -39.6460000  -2.2690000   9.7280000 -38.1130000  -3.0980000   9.8470000
 -38.5060000  -2.2310000   7.9190000 -39.2270000  -1.5430000   7.4850000
 -37.3170000  -2.3790000   7.3420000 -37.0920000  -1.8150000   6.4400000
 -36.2140000  -3.3110000   7.8050000 -35.2500000  -2.8020000   7.7500000
 -36.3530000  -3.6030000   8.8480000 -36.1690000  -4.5850000   6.9440000
 -35.5290000  -5.3240000   7.4320000 -37.1710000  -5.0160000   6.8880000
 -35.6350000  -4.3320000   5.5220000 -36.1600000  -3.4890000   5.0680000
 -34.5770000  -4.0690000   5.5800000 -35.8160000  -5.5690000   4.6270000
 -35.4490000  -6.4550000   5.1490000 -36.8820000  -5.7140000   4.4380000
 -35.0720000  -5.4320000   3.2910000 -35.3580000  -4.5010000   2.7970000
 -33.9990000  -5.3830000   3.4910000 -35.3670000  -6.6150000   2.3540000
 -35.3090000  -7.5490000   2.9160000 -36.3850000  -6.5260000   1.9670000
 -34.3760000  -6.6610000   1.1830000 -34.4410000  -5.7280000   0.6190000
 -33.3630000  -6.7380000   1.5830000 -34.6270000  -7.8440000   0.2380000
 -35.6300000  -7.7850000  -0.1900000 -34.5370000  -8.7910000   0.7730000
 -33.8990000  -7.8350000  -0.5760000  27.1010000 -35.8510000   1.6870000
  27.8450000 -36.5710000   1.3390000  27.6220000 -35.0280000   2.1800000
  26.5670000 -35.4530000   0.8220000  26.1160000 -36.5220000   2.6560000
  26.6640000 -36.8730000   3.5330000  25.6670000 -37.3940000   2.1770000
  25.0080000 -35.5510000   3.1010000  24.3660000 -35.3140000   2.2510000
  25.4680000 -34.6190000   3.4360000  24.1610000 -36.1260000   4.2500000
  24.8250000 -36.3850000   5.0780000  23.6660000 -37.0430000   3.9250000
  23.1090000 -35.1160000   4.7420000  22.3240000 -35.0100000   3.9910000
  23.5820000 -34.1390000   4.8620000  22.4940000 -35.5310000   6.0910000
  23.2970000 -35.6390000   6.8230000  22.0080000 -36.5030000   5.9880000
  21.4790000 -34.4920000   6.6040000  20.5610000 -34.5580000   6.0170000
  21.8940000 -33.4930000   6.4530000  21.1560000 -34.6390000   8.1000000
  20.4490000 -33.8570000   8.3850000  22.0770000 -34.4620000   8.6590000
  20.5680000 -36.0090000   8.4900000  21.2470000 -36.8050000   8.1780000
  19.6260000 -36.1600000   7.9590000  20.3200000 -36.1460000  10.0050000
  19.8890000 -37.1320000  10.1940000  19.5840000 -35.4040000  10.3230000
  21.6100000 -35.9860000  10.8370000  21.9250000 -34.9410000  10.8350000
  22.4090000 -36.5610000  10.3630000  21.4720000 -36.4670000  12.2920000
  22.4690000 -36.4630000  12.7380000  21.1190000 -37.5000000  12.3000000
  20.5270000 -35.5990000  13.1470000  19.5440000 -35.5580000  12.6740000
  20.9110000 -34.5780000  13.1840000  20.3550000 -36.1320000  14.5840000
  19.8990000 -37.1230000  14.5450000  19.6630000 -35.4790000  15.1200000
  21.6790000 -36.2130000  15.3680000  22.1570000 -35.2310000  15.3970000
  22.3690000 -36.9040000  14.8780000  21.4640000 -36.6960000  16.7800000
  21.4240000 -35.9520000  17.7460000  21.3120000 -38.0330000  16.8450000
  21.4710000 -38.7180000  18.1270000  20.5840000 -39.3360000  18.2860000
  21.5320000 -38.0140000  18.9600000  22.7280000 -39.6370000  18.1310000
  22.6420000 -40.2960000  18.9980000  24.0630000 -38.8450000  18.2700000
  24.9020000 -39.5440000  18.2210000  24.0900000 -38.3600000  19.2490000
  24.2410000 -37.8270000  17.2490000  25.6360000 -37.0260000  17.1000000
  25.5740000 -35.9820000  18.3200000  24.7800000 -34.7880000  18.2190000
  23.7570000 -35.0520000  17.9390000  25.1990000 -34.1480000  17.4380000
  24.8030000 -34.0420000  19.5730000  24.2240000 -33.1230000  19.4640000
  25.8300000 -33.7670000  19.8180000  24.2440000 -34.7390000  20.7930000
  25.1450000 -35.8360000  21.2620000  25.2480000 -36.5680000  20.4600000
  24.7030000 -36.2990000  22.1450000  26.1180000 -35.4080000  21.5050000
  24.1270000 -33.7460000  21.9010000  23.4450000 -32.9530000  21.5920000
  25.1160000 -33.3350000  22.1090000  23.7370000 -34.2530000  22.7850000
  22.8860000 -35.3000000  20.5270000  22.2320000 -34.4920000  20.1980000
  22.5040000 -35.7480000  21.4460000  22.9700000 -36.0540000  19.7430000
  26.7640000 -37.9550000  17.3670000  25.6140000 -36.2680000  15.8200000
  22.7080000 -40.4680000  16.9310000  23.4660000 -41.5810000  16.8740000
  24.2590000 -41.9090000  17.7420000  23.1970000 -42.4030000  15.6330000
  23.8900000 -43.2470000  15.6040000  22.1880000 -42.8120000  15.7130000
  23.3130000 -41.5980000  14.3230000  22.7520000 -40.6650000  14.4150000
  24.3590000 -41.3380000  14.1480000  22.7570000 -42.3990000  13.1280000
  23.2540000 -43.3710000  13.0820000  21.6960000 -42.5970000  13.2970000
  22.9170000 -41.7000000  11.7640000  23.9810000 -41.5750000  11.5500000
  22.5050000 -42.3520000  10.9910000  22.2130000 -40.3300000  11.6970000
  21.1890000 -40.4350000  12.0630000  22.7220000 -39.6280000  12.3600000
  22.1600000 -39.7240000  10.2820000  21.5340000 -40.3530000   9.6440000
  21.6680000 -38.7510000  10.3400000  23.5420000 -39.5540000   9.6210000
  24.2140000 -39.0480000  10.3160000  23.9790000 -40.5330000   9.4130000
  23.4500000 -38.7420000   8.3450000  23.7770000 -37.7090000   8.4360000
  23.0450000 -39.1890000   7.1610000  23.0390000 -38.5060000   6.3150000
  22.5230000 -40.5820000   6.8650000  22.6050000 -41.2330000   7.7380000
  21.4620000 -40.5160000   6.6140000  23.2550000 -41.2440000   5.6810000
  24.3050000 -41.3910000   5.9430000  22.8210000 -42.2330000   5.5200000
  23.1680000 -40.4390000   4.3690000  22.1210000 -40.2030000   4.1650000
  23.7040000 -39.4950000   4.4850000  23.7610000 -41.2140000   3.1770000
  24.7620000 -41.5620000   3.4390000  23.1490000 -42.0990000   2.9900000
  23.8560000 -40.3850000   1.8810000  24.5610000 -39.5660000   2.0370000
  24.2660000 -41.0210000   1.0930000  22.5010000 -39.8170000   1.4170000
  21.7680000 -40.6270000   1.3960000  22.1480000 -39.0770000   2.1390000
  22.5440000 -39.1650000   0.0210000  22.7730000 -39.9310000  -0.7230000
  21.5500000 -38.7800000  -0.2180000  23.5600000 -38.0180000  -0.1030000
  23.4870000 -37.5620000  -1.0930000  24.5810000 -38.3840000   0.0260000
  23.3640000 -37.2490000   0.6470000  19.2170000 -15.8870000   2.6550000
  18.7600000 -16.1400000   1.6960000  18.8600000 -14.9000000   2.9550000
  18.8840000 -16.6180000   3.3940000  20.7510000 -15.8880000   2.5280000
  21.0340000 -15.1960000   1.7320000  21.0880000 -16.8820000   2.2250000
  21.4750000 -15.4740000   3.8240000  21.1060000 -14.4970000   4.1420000
  22.5390000 -15.3640000   3.6060000  21.3080000 -16.4880000   4.9740000
  21.7390000 -17.4450000   4.6720000  20.2470000 -16.6570000   5.1720000
  21.9840000 -16.0120000   6.2730000  21.5550000 -15.0550000   6.5770000
  23.0490000 -15.8500000   6.0910000  21.8180000 -17.0320000   7.4130000
  22.1780000 -18.0070000   7.0790000  20.7560000 -17.1370000   7.6470000
  22.5850000 -16.6230000   8.6840000  22.2580000 -15.6290000   8.9980000
  23.6530000 -16.5650000   8.4620000  22.3510000 -17.6160000   9.8350000
  22.6790000 -18.6090000   9.5220000  21.2800000 -17.6720000  10.0420000
  23.0950000 -17.2260000  11.1250000  22.8190000 -16.2100000  11.4130000
  24.1710000 -17.2370000  10.9400000  22.7480000 -18.1920000  12.2740000
  23.0420000 -19.2070000  11.9970000  21.6650000 -18.1980000  12.4130000
  23.4060000 -17.8210000  13.6150000  22.9780000 -18.4580000  14.3920000
  23.1450000 -16.7910000  13.8640000  24.9390000 -17.9900000  13.6300000
  25.3990000 -17.2450000  12.9770000  25.1940000 -18.9710000  13.2220000
  25.5350000 -17.8870000  15.0510000  26.6210000 -17.9880000  14.9920000
  25.1710000 -18.7330000  15.6390000  25.1810000 -16.5890000  15.8040000
  25.5420000 -16.6630000  16.8320000  24.0940000 -16.4990000  15.8600000
  25.7650000 -15.3150000  15.1660000  25.6460000 -15.3410000  14.0800000
  26.8320000 -15.2470000  15.3870000  25.0700000 -14.0830000  15.6900000
  25.3990000 -13.5050000  16.7120000  24.0800000 -13.6800000  14.8690000
  23.2080000 -12.5800000  15.2690000  22.8460000 -12.1060000  14.3530000
  23.7670000 -11.8270000  15.8300000  21.9580000 -13.0430000  16.0750000
  21.3180000 -12.1630000  16.1760000  22.2870000 -13.5830000  17.4950000
  21.4030000 -13.4450000  18.1220000  23.1000000 -12.9960000  17.9300000
  22.6620000 -14.9950000  17.4710000  21.9500000 -16.1130000  18.4110000
  22.7990000 -16.0180000  19.7800000  24.1760000 -16.4510000  19.8390000
  24.3380000 -17.2700000  19.1330000  24.3880000 -16.8230000  20.8450000
  25.1110000 -15.2660000  19.5040000  24.7700000 -14.7990000  18.5790000
  26.1230000 -15.6400000  19.3400000  25.2510000 -14.1530000  20.5120000
  25.9380000 -14.6430000  21.7420000  25.3220000 -15.4130000  22.2070000
  26.0750000 -13.8020000  22.4230000  26.9070000 -15.0510000  21.4480000
  26.0840000 -13.0770000  19.9110000  25.6020000 -12.7360000  18.9940000
  27.0640000 -13.4980000  19.6810000  26.1810000 -12.2590000  20.6270000
  23.9390000 -13.5560000  20.9040000  23.4400000 -13.1910000  20.0050000
  24.1170000 -12.7410000  21.6060000  23.3360000 -14.3360000  21.3720000
  20.5550000 -15.6890000  18.7190000  22.1610000 -17.4620000  17.8150000
  21.2650000 -14.0690000  15.3130000  19.9360000 -14.2100000  15.4520000
  19.2140000 -13.4080000  16.0230000  19.4180000 -15.4670000  14.7910000
  19.7610000 -16.3260000  15.3730000  18.3270000 -15.4650000  14.8150000
  19.9060000 -15.6240000  13.3370000  20.9950000 -15.7090000  13.3210000
  19.5130000 -16.5650000  12.9470000  19.4760000 -14.4750000  12.4050000
  18.4000000 -14.3120000  12.4990000  19.9780000 -13.5530000  12.7050000
  19.8110000 -14.8010000  10.9390000  20.8700000 -15.0520000  10.8500000
  19.2560000 -15.6970000  10.6530000  19.4490000 -13.6650000   9.9620000
  19.3910000 -14.0850000   8.9560000  18.4550000 -13.2840000  10.2050000
  20.4380000 -12.4840000   9.9310000  20.0360000 -11.7190000   9.2640000
  20.5220000 -12.0380000  10.9240000  21.8290000 -12.9050000   9.4260000
  22.3030000 -13.5380000  10.1790000  21.7050000 -13.4920000   8.5140000
  22.7100000 -11.7030000   9.1690000  22.5630000 -10.8700000   9.8520000
  23.5540000 -11.5740000   8.1510000  24.1030000 -10.6440000   8.0270000
  23.9190000 -12.6760000   7.1810000  23.6410000 -13.6540000   7.5790000
  23.3790000 -12.5300000   6.2430000  25.4300000 -12.6690000   6.8950000
  25.6900000 -11.7820000   6.3130000  25.9720000 -12.6060000   7.8400000
  25.8980000 -13.9340000   6.1560000  26.9810000 -13.8780000   6.0300000
  25.6860000 -14.7950000   6.7920000  25.2450000 -14.1480000   4.7780000
  24.1680000 -14.2760000   4.9000000  25.3970000 -13.2530000   4.1710000
  25.8120000 -15.3580000   4.0090000  25.2390000 -15.4610000   3.0860000
  26.8460000 -15.1460000   3.7280000  25.7700000 -16.6940000   4.7820000
  26.4020000 -16.6210000   5.6690000  24.7510000 -16.8880000   5.1250000
  26.2530000 -17.8970000   3.9510000  27.2640000 -17.7080000   3.5840000
  26.3060000 -18.7710000   4.6040000  25.3280000 -18.2220000   2.7660000
  25.6280000 -19.1640000   2.3030000  25.3700000 -17.4390000   2.0060000
  24.2940000 -18.3190000   3.1050000  10.5630000 -41.8570000   1.3200000
  10.1150000 -42.4650000   0.5320000  11.4870000 -41.4120000   0.9450000
   9.8700000 -41.0550000   1.5810000  10.8830000 -42.7140000   2.5460000
  11.4640000 -43.5830000   2.2290000   9.9530000 -43.0890000   2.9790000
  11.6820000 -41.9460000   3.6130000  12.6570000 -41.6790000   3.2000000
  11.8620000 -42.6320000   4.4430000  11.0210000 -40.6640000   4.1580000
  11.0520000 -39.8920000   3.3860000  11.6110000 -40.2940000   4.9990000
   9.5600000 -40.8470000   4.6070000   8.9570000 -41.1180000   3.7380000
   9.1860000 -39.8850000   4.9640000   9.3500000 -41.8950000   5.7170000
   9.6900000 -41.4880000   6.6710000   9.9410000 -42.7910000   5.5140000
   7.8690000 -42.2970000   5.8070000   7.5630000 -42.7400000   4.8570000
   7.2610000 -41.4030000   5.9610000   7.5870000 -43.2930000   6.9430000
   7.7550000 -42.7920000   7.8990000   8.2780000 -44.1360000   6.8820000
   6.1390000 -43.8120000   6.8740000   6.0480000 -44.5320000   6.0590000
   5.4740000 -42.9780000   6.6430000   5.6590000 -44.4480000   8.1890000
   4.6100000 -44.7260000   8.0760000   5.7160000 -43.6860000   8.9700000
   6.4550000 -45.6770000   8.6560000   7.4870000 -45.3920000   8.8700000
   6.4720000 -46.4220000   7.8570000   5.8170000 -46.2910000   9.9160000
   4.7910000 -46.5880000   9.6900000   5.7710000 -45.5400000  10.7070000
   6.5970000 -47.5110000  10.4300000   7.5610000 -47.1710000  10.8160000
   6.7940000 -48.1940000   9.6010000   5.8330000 -48.2740000  11.5280000
   4.9060000 -48.6720000  11.1100000   5.5520000 -47.5820000  12.3250000
   6.6540000 -49.4350000  12.1200000   6.0190000 -50.0350000  12.7750000
   7.0220000 -50.0870000  11.3240000   7.8160000 -48.9010000  12.9180000
   8.9740000 -48.9690000  12.5510000   7.4110000 -48.3330000  14.0700000
   8.3720000 -47.5780000  14.8640000   9.3480000 -48.0690000  14.8590000
   8.0160000 -47.5630000  15.8980000   8.4860000 -46.1070000  14.3680000
   9.1470000 -45.5570000  15.0430000   7.1040000 -45.3980000  14.3400000
   6.2920000 -46.1180000  14.4730000   6.9720000 -44.9210000  13.3660000
   7.0020000 -44.3620000  15.3580000   6.8680000 -44.6930000  16.9370000
   8.4070000 -44.8530000  17.3860000   9.2910000 -43.7140000  17.4470000
   9.0750000 -43.0470000  16.6080000  10.3210000 -44.0660000  17.3430000
   9.1270000 -42.9530000  18.7850000   8.0950000 -42.6130000  18.8800000
   9.7680000 -42.0700000  18.7640000   9.4500000 -43.6650000  20.0740000
   8.4770000 -44.7590000  20.3640000   7.4720000 -44.3350000  20.3640000
   8.7120000 -45.1930000  21.3370000   8.5630000 -45.5130000  19.5800000
  10.8310000 -44.2360000  20.0490000  11.5380000 -43.4330000  19.8360000
  10.8760000 -45.0020000  19.2740000  11.0420000 -44.6780000  21.0250000
   9.3690000 -42.6760000  21.1880000  10.0740000 -41.8680000  20.9900000
   9.6170000 -43.1790000  22.1240000   8.3520000 -42.2840000  21.2270000
   6.2760000 -43.5110000  17.6170000   6.2100000 -46.0160000  17.1020000
   9.0430000 -46.0190000  13.0250000  10.3700000 -46.2050000  12.8620000
  11.1220000 -46.5630000  13.7540000  10.8320000 -45.8190000  11.4740000
   9.9750000 -45.7780000  10.7980000  11.2140000 -44.7990000  11.5380000
  11.9430000 -46.7310000  10.8990000  12.4380000 -46.1830000  10.0950000
  12.7030000 -46.9140000  11.6610000  11.4810000 -48.0770000  10.3110000
  12.3440000 -48.5600000   9.8480000  11.1260000 -48.7360000  11.1050000
  10.3870000 -47.8970000   9.2470000   9.4440000 -47.6480000   9.7380000
  10.6610000 -47.0530000   8.6100000  10.1810000 -49.1400000   8.3660000
  11.0790000 -49.3120000   7.7690000  10.0410000 -50.0190000   8.9990000
   8.9590000 -48.9970000   7.4360000   8.9430000 -49.8410000   6.7430000
   8.0530000 -49.0790000   8.0400000   8.8900000 -47.6790000   6.6340000
   7.9770000 -47.6880000   6.0350000   8.8070000 -46.8420000   7.3300000
  10.0880000 -47.4640000   5.7330000  10.9650000 -48.0650000   5.9600000
  10.1180000 -46.6250000   4.7040000  11.0240000 -46.5470000   4.1070000
   8.9830000 -45.7160000   4.2740000   8.0390000 -45.9830000   4.7520000
   9.2210000 -44.6920000   4.5680000   8.8110000 -45.7450000   2.7480000
   9.7490000 -45.4300000   2.2860000   8.6130000 -46.7680000   2.4240000
   7.6720000 -44.8340000   2.2550000   6.7190000 -45.1970000   2.6470000
   7.8210000 -43.8220000   2.6370000   7.6190000 -44.7930000   0.7170000
   8.5860000 -44.4550000   0.3380000   7.4510000 -45.8010000   0.3330000
   6.5190000 -43.8550000   0.1890000   5.5430000 -44.2200000   0.5140000
   6.6590000 -42.8590000   0.6140000   6.5500000 -43.7580000  -1.3460000
   7.5300000 -43.3900000  -1.6580000   6.4210000 -44.7530000  -1.7780000
   5.4600000 -42.8210000  -1.8940000   4.4740000 -43.2300000  -1.6650000
   5.5330000 -41.8510000  -1.3970000   5.5910000 -42.6220000  -3.4130000
   4.8790000 -41.8700000  -3.7590000   5.3970000 -43.5590000  -3.9390000
   6.5970000 -42.2840000  -3.6710000  40.7200000  23.2730000   1.5610000
  41.2930000  22.3430000   1.5570000  39.8030000  23.1200000   0.9890000
  41.3070000  24.0480000   1.0640000  40.3800000  23.7060000   2.9950000
  39.8780000  22.8860000   3.5120000  39.6660000  24.5310000   2.9430000
  41.6230000  24.1710000   3.7840000  41.3090000  24.6850000   4.6940000
  42.1470000  24.9160000   3.1810000  42.6160000  23.0460000   4.1490000
  43.6290000  23.4480000   4.0770000  42.5480000  22.2280000   3.4290000
  42.4360000  22.5010000   5.5790000  42.6500000  23.3070000   6.2850000
  43.1790000  21.7200000   5.7550000  41.0330000  21.9400000   5.8750000
  40.8320000  21.0910000   5.2190000  40.2810000  22.7060000   5.6730000
  40.9010000  21.5160000   7.3470000  41.2090000  22.3500000   7.9810000
  41.5900000  20.6940000   7.5550000  39.4720000  21.1120000   7.7530000
  38.7980000  21.9480000   7.5530000  39.4790000  20.9540000   8.8330000
  38.9160000  19.8580000   7.0480000  39.5500000  18.9980000   7.2740000
  38.9450000  20.0070000   5.9660000  37.4620000  19.5440000   7.4580000
  37.1060000  18.6840000   6.8870000  36.8420000  20.3970000   7.1720000
  37.2910000  19.2560000   8.9670000  37.7290000  20.0700000   9.5480000
  37.8530000  18.3560000   9.2220000  35.8300000  19.0790000   9.4330000
  35.8240000  18.9710000  10.5190000  35.4400000  18.1440000   9.0230000
  34.8730000  20.2240000   9.0300000  33.8960000  20.0410000   9.4810000
  34.7200000  20.1710000   7.9500000  35.3320000  21.6600000   9.3780000
  34.7190000  22.3420000   8.7860000  36.3620000  21.8260000   9.0530000
  35.1700000  22.0770000  10.8550000  34.1550000  21.8560000  11.1900000
  35.2960000  23.1600000  10.9280000  36.1520000  21.4390000  11.8070000
  37.3620000  21.4930000  11.6790000  35.5180000  20.8200000  12.8260000
  36.3000000  20.2050000  13.8920000  37.2220000  19.7740000  13.4950000
  35.7040000  19.3890000  14.3080000  36.6050000  21.2000000  15.0480000
  37.1410000  20.6520000  15.8270000  35.3070000  21.7830000  15.6610000
  34.6250000  20.9770000  15.9420000  34.8130000  22.4040000  14.9100000
  35.5950000  22.6110000  16.8290000  36.0250000  21.9690000  18.2520000
  37.5760000  21.6120000  18.0500000  38.5720000  22.6460000  18.0310000
  38.4860000  23.2650000  18.9280000  38.4070000  23.2790000  17.1560000
  39.9680000  21.9840000  17.9580000  40.7190000  22.7690000  17.8630000
  40.0230000  21.3470000  17.0740000  40.4080000  21.1230000  19.1220000
  39.7000000  19.8090000  19.1370000  38.6270000  19.9940000  19.2140000
  40.0520000  19.2320000  19.9930000  39.9300000  19.2860000  18.2080000
  41.8630000  20.8350000  18.9840000  42.4100000  21.7760000  18.9150000
  41.9980000  20.2360000  18.0820000  42.1880000  20.2640000  19.8550000
  40.1930000  21.8140000  20.4290000  40.7120000  22.7740000  20.4080000
  40.5910000  21.1850000  21.2270000  39.1210000  21.9610000  20.5680000
  35.9100000  23.0220000  19.2960000  35.2790000  20.6970000  18.4430000
  37.4160000  22.3130000  14.5830000  38.7420000  22.1300000  14.4360000
  39.3150000  21.0790000  14.6740000  39.4290000  23.3970000  13.9820000
  38.7930000  23.8560000  13.2210000  39.4790000  24.0920000  14.8230000
  40.8420000  23.1480000  13.4090000  41.4680000  22.6930000  14.1800000
  40.7740000  22.4230000  12.5950000  41.5460000  24.4260000  12.8980000
  41.8510000  25.0230000  13.7600000  42.4610000  24.1400000  12.3740000
  40.6830000  25.3120000  11.9730000  39.8450000  25.7080000  12.5510000
  41.2700000  26.1740000  11.6510000  40.1430000  24.5800000  10.7270000
  40.9340000  24.5100000   9.9780000  39.8530000  23.5590000  10.9840000
  38.9040000  25.2790000  10.1400000  38.1410000  25.3470000  10.9180000
  39.1550000  26.3000000   9.8440000  38.3090000  24.5170000   8.9440000
  38.2020000  23.4670000   9.2260000  37.3030000  24.8920000   8.7450000
  39.1790000  24.6240000   7.7090000  40.2230000  24.3560000   7.8510000
  38.7610000  24.9760000   6.4990000  39.4720000  25.0020000   5.6770000
  37.3540000  25.4030000   6.1420000  36.9610000  26.0800000   6.9030000
  37.3830000  25.9730000   5.2110000  36.3920000  24.2090000   5.9770000
  36.3050000  23.6730000   6.9240000  35.4050000  24.6130000   5.7440000
  36.8230000  23.2190000   4.8750000  37.0080000  23.7720000   3.9510000
  37.7700000  22.7530000   5.1580000  35.7950000  22.1050000   4.5880000
  36.1800000  21.4980000   3.7650000  35.7140000  21.4510000   5.4590000
  34.3910000  22.6350000   4.2280000  33.9420000  23.0780000   5.1200000
  34.4760000  23.4340000   3.4890000  33.4290000  21.5490000   3.7040000
  33.3440000  20.7580000   4.4520000  32.4350000  21.9880000   3.5950000
  33.8320000  20.9240000   2.3530000  34.7580000  20.3560000   2.4660000
  33.0570000  20.2130000   2.0580000  33.9990000  21.9540000   1.2240000
  33.0870000  22.5410000   1.1040000  34.2000000  21.4430000   0.2800000
  34.8310000  22.6320000   1.4290000  19.0020000 -39.5170000   1.3730000
  19.6130000 -38.6490000   1.1160000  18.8560000 -40.1180000   0.4740000
  19.5440000 -40.1170000   2.1070000  17.6550000 -39.0580000   1.9510000
  17.1380000 -38.4370000   1.2160000  17.8490000 -38.4390000   2.8290000
  16.7610000 -40.2500000   2.3370000  17.3150000 -40.9030000   3.0150000
  16.5440000 -40.8350000   1.4400000  15.4270000 -39.8370000   2.9880000
  14.8080000 -40.7280000   3.1100000  14.8920000 -39.1720000   2.3060000
  15.5660000 -39.1400000   4.3590000  14.5720000 -38.8250000   4.6830000
  16.1670000 -38.2340000   4.2570000  16.1740000 -40.0450000   5.4490000
  17.1720000 -40.3710000   5.1480000  15.5520000 -40.9370000   5.5510000
  16.2680000 -39.3340000   6.8140000  15.3100000 -38.8560000   7.0260000
  17.0210000 -38.5440000   6.7690000  16.5870000 -40.2980000   7.9730000
  15.8510000 -41.1040000   7.9560000  16.4570000 -39.7710000   8.9200000
  18.0000000 -40.9150000   7.9430000  18.7340000 -40.1580000   8.2260000
  18.2430000 -41.2500000   6.9330000  18.0830000 -42.1190000   8.9000000
  17.3940000 -42.8890000   8.5440000  17.7460000 -41.8140000   9.8930000
  19.4960000 -42.7240000   9.0060000  20.1280000 -42.0590000   9.5980000
  19.9390000 -42.7910000   8.0100000  19.5020000 -44.1310000   9.6360000
  20.5320000 -44.4890000   9.6850000  18.9580000 -44.8120000   8.9780000
  18.8780000 -44.1860000  11.0450000  17.8460000 -43.8310000  11.0050000
  19.4310000 -43.5230000  11.7130000  18.8830000 -45.6200000  11.6090000
  19.9100000 -45.9850000  11.6780000  18.3640000 -46.2720000  10.9030000
  18.1920000 -45.7420000  12.9820000  18.0410000 -46.7970000  13.2190000
  17.2020000 -45.2820000  12.9360000  18.9770000 -45.1200000  14.1170000
  20.1820000 -44.9500000  14.1130000  18.1760000 -44.7980000  15.1520000
  18.7740000 -44.2930000  16.3860000  19.6180000 -44.9220000  16.6800000
  18.0120000 -44.3530000  17.1680000  19.2260000 -42.8170000  16.2380000
  20.0410000 -42.7700000  15.5120000  19.7440000 -42.2150000  17.5630000
  19.7490000 -41.1250000  17.4730000  20.7670000 -42.5580000  17.7360000
  18.9310000 -42.6120000  18.7020000  19.1690000 -41.9940000  20.1800000
  17.9510000 -40.9500000  20.3340000  16.6210000 -41.3960000  20.6820000
  16.0580000 -40.5490000  21.0810000  16.6800000 -42.1570000  21.4650000
  15.9050000 -41.9700000  19.4350000  15.0180000 -42.5170000  19.7570000
  16.5720000 -42.6760000  18.9370000  15.4350000 -41.0040000  18.3750000
  16.5320000 -40.1130000  17.8950000  16.8740000 -39.5070000  18.7350000
  16.1510000 -39.4750000  17.0960000  17.3500000 -40.7410000  17.5380000
  14.9300000 -41.7920000  17.2120000  14.1420000 -42.4630000  17.5570000
  15.7590000 -42.3660000  16.7960000  14.5330000 -41.0990000  16.4680000
  14.3180000 -40.1580000  18.8930000  13.5160000 -40.8100000  19.2430000
  13.9560000 -39.5230000  18.0830000  14.6930000 -39.5430000  19.7120000
  19.0040000 -43.0870000  21.1800000  20.4330000 -41.2090000  20.1900000
  18.0880000 -42.0290000  15.7920000  18.1150000 -41.4910000  14.5560000
  19.1010000 -41.4070000  13.8490000  16.7400000 -41.0600000  14.1210000
  16.2240000 -40.5940000  14.9630000  16.8200000 -40.3200000  13.3220000
  15.9670000 -42.2970000  13.6310000  16.4490000 -42.6650000  12.7230000
  16.0410000 -43.0870000  14.3800000  14.4780000 -42.0220000  13.3620000
  14.0170000 -41.6370000  14.2740000  14.3740000 -41.2480000  12.5990000
  13.7290000 -43.3000000  12.9360000  13.8720000 -44.0650000  13.7020000
  12.6580000 -43.0900000  12.8960000  14.1790000 -43.8690000  11.5750000
  15.2600000 -44.0240000  11.5600000  13.7250000 -44.8540000  11.4460000
  13.7640000 -42.9700000  10.3980000  12.6830000 -42.8180000  10.4270000
  14.2370000 -41.9910000  10.4990000  14.1500000 -43.5650000   9.0350000
  15.2360000 -43.6760000   9.0020000  13.7070000 -44.5580000   8.9330000
  13.7010000 -42.6360000   7.9270000  13.7120000 -41.5800000   8.1870000
  13.2930000 -42.9890000   6.7150000  12.9970000 -42.2080000   6.0190000
  13.2270000 -44.4000000   6.1630000  13.2150000 -45.1350000   6.9710000
  12.3000000 -44.5410000   5.6030000  14.4310000 -44.6940000   5.2510000
  15.3400000 -44.4590000   5.8080000  14.4340000 -45.7640000   5.0300000
  14.4430000 -43.9230000   3.9180000  13.5660000 -44.2140000   3.3360000
  14.3590000 -42.8540000   4.1240000  15.7050000 -44.1560000   3.0580000
  15.8230000 -45.2170000   2.8300000  15.5550000 -43.6420000   2.1060000
  16.9910000 -43.6000000   3.7060000  17.6100000 -43.1550000   2.9250000
  16.7200000 -42.7950000   4.3920000  17.8430000 -44.6490000   4.4470000
  17.1920000 -45.3600000   4.9610000  18.4260000 -45.2200000   3.7210000
  18.7820000 -44.0190000   5.4930000  18.1730000 -43.5450000   6.2660000
  19.3530000 -44.8120000   5.9790000  19.7590000 -42.9770000   4.9200000
  20.3820000 -42.5700000   5.7200000  19.2220000 -42.1490000   4.4540000
  20.4150000 -43.4350000   4.1780000  42.9650000  -0.1100000   1.1970000
  42.6290000   0.4850000   0.3460000  42.1130000  -0.2870000   1.8570000
  43.3230000  -1.0740000   0.8300000  44.0880000   0.6190000   1.9500000
  43.7150000   1.5830000   2.3030000  44.9080000   0.8170000   1.2570000
  44.6120000  -0.1950000   3.1470000  44.9880000  -1.1580000   2.7980000
  43.7860000  -0.3910000   3.8340000  45.7280000   0.5540000   3.8950000
  45.3510000   1.5400000   4.1730000  46.5790000   0.7010000   3.2270000
  46.1910000  -0.1910000   5.1620000  46.5360000  -1.1890000   4.8860000
  45.3370000  -0.3200000   5.8300000  47.3180000   0.5260000   5.9310000
  48.2200000   0.5530000   5.3150000  47.5480000  -0.0660000   6.8190000
  46.9470000   1.9670000   6.3400000  45.9680000   1.9630000   6.8230000
  46.8570000   2.5730000   5.4370000  47.9660000   2.6550000   7.2690000
  47.6500000   3.6880000   7.4290000  48.9310000   2.6980000   6.7600000
  48.1520000   1.9660000   8.6350000  48.9460000   2.4830000   9.1780000
  48.5010000   0.9440000   8.4710000  46.8980000   1.9240000   9.5300000
  47.0800000   1.2250000  10.3490000  46.0490000   1.5350000   8.9640000
  46.5430000   3.2950000  10.1360000  46.4250000   4.0330000   9.3410000
  47.3660000   3.6250000  10.7730000  45.2470000   3.2390000  10.9670000
  45.3040000   2.4060000  11.6700000  44.4130000   3.0270000  10.2950000
  44.9810000   4.5410000  11.7490000  45.6830000   5.3040000  11.4040000
  45.2130000   4.3770000  12.8040000  43.5470000   5.0990000  11.6000000
  43.3680000   5.3030000  10.5420000  43.4850000   6.0600000  12.1150000
  42.4120000   4.1840000  12.1170000  42.4870000   3.1930000  11.6640000
  41.4520000   4.5980000  11.8000000  42.3760000   4.0310000  13.6210000
  43.1390000   4.5720000  14.3990000  41.3740000   3.2180000  14.0090000
  41.3740000   2.7590000  15.3950000  41.3020000   3.6160000  16.0700000
  42.3090000   2.2290000  15.5950000  40.1840000   1.7980000  15.6390000
  39.2560000   2.3310000  15.4180000  40.1380000   1.3110000  17.1040000
  39.3710000   0.5390000  17.2040000  39.8740000   2.1440000  17.7600000
  41.4210000   0.7760000  17.5200000  41.5660000   0.0150000  18.9290000
  40.6930000  -1.3140000  18.6770000  41.2100000  -2.4230000  17.9160000
  41.8560000  -2.0540000  17.1150000  40.3680000  -2.9480000  17.4580000
  41.9870000  -3.3850000  18.8440000  42.8850000  -2.8860000  19.2120000
  42.2970000  -4.2520000  18.2580000  41.2810000  -3.9340000  20.0590000
  39.9440000  -4.4990000  19.7020000  39.3320000  -3.6910000  19.2990000
  39.4870000  -4.8980000  20.6090000  40.0860000  -5.2850000  18.9580000
  42.1130000  -5.0230000  20.6440000  43.0810000  -4.6040000  20.9260000
  42.2430000  -5.7970000  19.8860000  41.6000000  -5.4230000  21.5200000
  41.1030000  -2.8970000  21.1200000  42.0770000  -2.4560000  21.3380000
  40.6850000  -3.3660000  22.0120000  40.4240000  -2.1310000  20.7430000
  42.9930000  -0.3610000  19.1280000  40.8880000   0.8220000  19.9810000
  40.3210000   0.6730000  14.7310000  39.2200000   0.0090000  14.3370000
  38.1130000   0.1620000  14.8270000  39.5400000  -0.9040000  13.1810000
  39.8830000  -0.2590000  12.3690000  40.3810000  -1.5400000  13.4650000
  38.3620000  -1.7790000  12.6990000  38.0510000  -2.4390000  13.5110000
  37.5070000  -1.1480000  12.4470000  38.7500000  -2.6300000  11.4710000
  39.6690000  -3.1750000  11.6990000  37.9720000  -3.3750000  11.2890000
  38.9340000  -1.7790000  10.1950000  37.9600000  -1.3890000   9.8920000
  39.5640000  -0.9120000  10.4060000  39.5620000  -2.5250000   9.0030000
  38.9200000  -3.3600000   8.7150000  39.5970000  -1.8340000   8.1580000
  40.9840000  -3.0550000   9.2790000  41.5260000  -2.3380000   9.8990000
  40.9160000  -3.9870000   9.8450000  41.8060000  -3.2950000   7.9990000
  41.9470000  -2.3440000   7.4800000  42.8040000  -3.6330000   8.2850000
  41.1750000  -4.3410000   7.1010000  41.2470000  -5.3590000   7.4750000
  40.5980000  -4.1270000   5.9220000  40.2040000  -4.9780000   5.3720000
  40.3780000  -2.7830000   5.2510000  39.3080000  -2.6330000   5.0910000
  40.7160000  -1.9560000   5.8800000  41.0940000  -2.6950000   3.8910000
  41.0080000  -1.6730000   3.5150000  42.1580000  -2.8950000   4.0340000
  40.5280000  -3.6640000   2.8330000  40.6000000  -4.6890000   3.2020000
  39.4710000  -3.4400000   2.6740000  41.2880000  -3.5580000   1.4990000
  41.1330000  -2.5670000   1.0660000  42.3550000  -3.6610000   1.7060000
  40.8930000  -4.6380000   0.4740000  41.5440000  -4.5500000  -0.3980000
  41.0760000  -5.6210000   0.9130000  39.4250000  -4.5540000   0.0140000
  38.7630000  -4.6130000   0.8800000  39.2470000  -3.5910000  -0.4700000
  39.0690000  -5.6920000  -0.9590000  39.6700000  -5.5970000  -1.8660000
  39.3180000  -6.6500000  -0.4990000  37.5770000  -5.6950000  -1.3310000
  37.3020000  -4.7660000  -1.8340000  36.9620000  -5.7990000  -0.4350000
  37.3560000  -6.5290000  -2.0010000  35.2400000 -25.5960000   3.0290000
  35.5090000 -24.6970000   2.4710000  35.3520000 -26.4570000   2.3670000
  35.9330000 -25.7090000   3.8650000  33.7940000 -25.4990000   3.5370000
  33.1270000 -25.3480000   2.6860000  33.7000000 -24.6290000   4.1910000
  33.3770000 -26.7710000   4.2970000  33.9880000 -26.8780000   5.1950000
  33.5810000 -27.6360000   3.6630000  31.8860000 -26.7980000   4.6830000
  31.6630000 -27.7840000   5.0970000  31.2830000 -26.6810000   3.7800000
  31.4820000 -25.7360000   5.7240000  31.6930000 -24.7340000   5.3440000
  32.0960000 -25.8780000   6.6160000  29.9970000 -25.8430000   6.1310000
  29.8430000 -25.2840000   7.0570000  29.7730000 -26.8860000   6.3640000
  28.9930000 -25.3420000   5.0700000  27.9900000 -25.6520000   5.3690000
  29.2000000 -25.8300000   4.1150000  28.9870000 -23.8130000   4.8560000
  28.3100000 -23.5820000   4.0310000  29.9830000 -23.4860000   4.5510000
  28.5390000 -23.0200000   6.1020000  29.2380000 -23.2060000   6.9200000
  27.5590000 -23.3840000   6.4180000  28.4510000 -21.5000000   5.8510000
  27.8220000 -21.3230000   4.9760000  29.4430000 -21.1080000   5.6180000
  27.8570000 -20.7220000   7.0460000  26.8750000 -21.1340000   7.2870000
  27.7070000 -19.6820000   6.7500000  28.7330000 -20.7600000   8.3110000
  29.6910000 -20.2870000   8.0850000  28.9310000 -21.7970000   8.5890000
  28.0660000 -20.0560000   9.5100000  27.0910000 -20.5150000   9.6900000
  27.8840000 -19.0050000   9.2780000  28.8980000 -20.1600000  10.8020000
  29.0320000 -21.2180000  11.0370000  28.3320000 -19.7190000  11.6250000
  30.2780000 -19.4730000  10.7100000  30.1520000 -18.4030000  10.5320000
  30.8540000 -19.8870000   9.8790000  31.0820000 -19.6770000  11.9700000
  31.5140000 -18.7700000  12.6550000  31.2860000 -20.9810000  12.2340000
  32.0630000 -21.3880000  13.3970000  33.0060000 -20.8370000  13.4220000
  32.2820000 -22.4530000  13.2900000  31.2770000 -21.1570000  14.7130000
  31.1350000 -20.0790000  14.8220000  32.0490000 -21.6710000  15.9530000
  31.3700000 -21.7430000  16.8070000  32.8320000 -20.9490000  16.1990000
  32.6710000 -22.9620000  15.7240000  33.5130000 -23.6860000  16.8970000
  32.3480000 -24.2590000  17.8500000  32.6600000 -25.0980000  18.9790000
  33.4320000 -25.8180000  18.6930000  31.7640000 -25.6570000  19.2590000
  33.1460000 -24.2390000  20.1720000  34.0130000 -23.6550000  19.8600000
  33.4600000 -24.9060000  20.9760000  32.1840000 -23.2580000  20.7980000
  31.8020000 -22.1650000  19.8560000  32.7170000 -21.7100000  19.4750000
  31.1960000 -21.4310000  20.3900000  31.2360000 -22.6060000  19.0340000
  30.9460000 -23.9450000  21.2740000  31.2320000 -24.7370000  21.9680000
  30.4260000 -24.3620000  20.4110000  30.3140000 -23.2110000  21.7760000
  32.8510000 -22.6280000  21.9740000  33.1160000 -23.4100000  22.6870000
  32.1590000 -21.9190000  22.4300000  33.7470000 -22.1120000  21.6270000
  34.2640000 -24.8290000  16.3100000  34.2620000 -22.6380000  17.6420000
  29.9720000 -21.7990000  14.6180000  28.9450000 -21.2730000  15.3150000
  29.0980000 -20.4140000  16.1660000  27.5690000 -21.7900000  14.9380000
  27.1270000 -22.2840000  15.8060000  26.9480000 -20.9210000  14.7080000
  27.5280000 -22.7450000  13.7230000  26.5060000 -22.7740000  13.3380000
  28.1550000 -22.3500000  12.9210000  27.9440000 -24.1840000  14.0840000
  28.9170000 -24.1810000  14.5790000  27.2250000 -24.5870000  14.7990000
  28.0080000 -25.1240000  12.8670000  28.1280000 -26.1450000  13.2350000
  27.0610000 -25.0930000  12.3250000  29.1680000 -24.7940000  11.9060000
  28.9370000 -23.8780000  11.3600000  30.0770000 -24.6140000  12.4830000
  29.4260000 -25.9400000  10.9070000  29.7730000 -26.8210000  11.4510000
  28.4840000 -26.2080000  10.4230000  30.4530000 -25.5930000   9.8150000
  30.5320000 -26.4490000   9.1420000  30.0690000 -24.7600000   9.2230000
  31.8300000 -25.2870000  10.3740000  32.3400000 -26.1300000  10.8330000
  32.4580000 -24.1180000  10.2770000  33.4630000 -24.0130000  10.6790000
  31.8490000 -22.8500000   9.7170000  30.7840000 -22.8110000   9.9570000
  32.3090000 -21.9810000  10.1920000  32.0270000 -22.7390000   8.1940000
  31.9130000 -23.7240000   7.7370000  31.2300000 -22.1050000   7.8030000
  33.3830000 -22.1230000   7.7990000  33.4060000 -21.0900000   8.1530000
  34.1910000 -22.6580000   8.3030000  33.6500000 -22.1370000   6.2820000
  34.5370000 -21.5310000   6.0860000  33.8820000 -23.1580000   5.9730000
  32.4690000 -21.6130000   5.4420000  31.6270000 -22.3010000   5.5420000
  32.1490000 -20.6410000   5.8240000  32.8270000 -21.4800000   3.9530000
  33.5410000 -20.6640000   3.8330000  33.3100000 -22.3990000   3.6140000
  31.6080000 -21.2020000   3.0590000  30.8810000 -22.0110000   3.1640000
  31.1210000 -20.2760000   3.3720000  32.0190000 -21.0920000   1.5830000
  31.1380000 -20.9270000   0.9590000  32.5100000 -22.0100000   1.2520000
  32.7070000 -20.2560000   1.4400000  -8.4230000 -36.2270000   0.9170000
  -9.3380000 -35.8330000   0.4700000  -8.2930000 -37.2610000   0.5920000
  -7.5780000 -35.6380000   0.5540000  -8.5000000 -36.1480000   2.4490000
  -9.3520000 -36.7380000   2.7940000  -8.6800000 -35.1100000   2.7340000
  -7.2110000 -36.6620000   3.1200000  -6.3690000 -36.0370000   2.8170000
  -7.0080000 -37.6740000   2.7640000  -7.2970000 -36.6940000   4.6590000
  -6.3910000 -37.1590000   5.0530000  -8.1380000 -37.3290000   4.9460000
  -7.4570000 -35.2950000   5.2870000  -8.3450000 -34.8050000   4.8800000
  -6.5960000 -34.6820000   5.0130000  -7.5820000 -35.3170000   6.8210000
  -7.6470000 -34.2860000   7.1740000  -6.6780000 -35.7530000   7.2500000
  -8.8110000 -36.1020000   7.3190000  -8.6440000 -37.1740000   7.1910000
  -9.6740000 -35.8370000   6.7040000  -9.1630000 -35.8000000   8.7870000
 -10.0700000 -36.3480000   9.0520000  -9.3940000 -34.7360000   8.8700000
  -8.0670000 -36.1100000   9.8190000  -8.4180000 -35.7440000  10.7870000
  -7.1630000 -35.5470000   9.5770000  -7.7370000 -37.6090000   9.9280000
  -7.3980000 -37.9840000   8.9600000  -8.6470000 -38.1560000  10.1840000
  -6.6660000 -37.9300000  10.9820000  -5.6900000 -37.6160000  10.6040000
  -6.6370000 -39.0160000  11.0990000  -6.9140000 -37.2820000  12.3590000
  -7.9670000 -37.3930000  12.6280000  -6.7120000 -36.2110000  12.2910000
  -6.0630000 -37.8790000  13.4960000  -6.4700000 -38.8570000  13.7610000
  -6.1670000 -37.2430000  14.3780000  -4.5680000 -38.0440000  13.1500000
  -4.1510000 -37.0940000  12.8090000  -4.4710000 -38.7520000  12.3250000
  -3.7460000 -38.5820000  14.3380000  -4.3570000 -39.2330000  14.9650000
  -2.9160000 -39.1820000  13.9580000  -3.1690000 -37.4690000  15.1720000
  -2.0070000 -37.1190000  15.0960000  -4.0640000 -36.9100000  16.0050000
  -3.6060000 -35.8410000  16.8820000  -3.0820000 -35.0820000  16.2950000
  -2.9110000 -36.2520000  17.6190000  -4.8100000 -35.1910000  17.6100000
  -4.4450000 -34.3910000  18.2590000  -5.5730000 -36.2220000  18.4700000
  -5.0120000 -37.1570000  18.5450000  -6.5370000 -36.4380000  18.0020000
  -5.7730000 -35.6900000  19.8090000  -6.8500000 -36.3310000  20.8290000
  -8.1120000 -35.3410000  20.7120000  -8.8710000 -35.2070000  19.4930000
  -9.9170000 -35.0250000  19.7520000  -8.8230000 -36.1340000  18.9160000
  -8.3200000 -34.0210000  18.6590000  -8.8880000 -33.9630000  17.7290000
  -7.2770000 -34.2150000  18.4040000  -8.3560000 -32.6330000  19.2610000
  -7.3890000 -32.4930000  20.3920000  -7.7030000 -33.1610000  21.1960000
  -7.3960000 -31.4590000  20.7390000  -6.3950000 -32.7750000  20.0430000
  -7.9670000 -31.6400000  18.2130000  -8.6540000 -31.7270000  17.3700000
  -6.9420000 -31.8440000  17.8990000  -8.0300000 -30.6400000  18.6440000
  -9.7270000 -32.2860000  19.7440000 -10.4290000 -32.3900000  18.9150000
  -9.7180000 -31.2580000  20.1090000  -9.9900000 -32.9670000  20.5540000
  -7.2530000 -37.6810000  20.3500000  -6.3010000 -36.2010000  22.2060000
  -5.7550000 -34.6430000  16.6470000  -5.4370000 -33.5190000  15.9830000
  -4.4520000 -32.8440000  16.2280000  -6.4450000 -33.1960000  14.9050000
  -6.9850000 -34.1070000  14.6380000  -7.1780000 -32.4960000  15.3120000
  -5.7950000 -32.5960000  13.6400000  -6.5800000 -32.3010000  12.9400000
  -5.2510000 -31.6890000  13.9110000  -4.8450000 -33.5840000  12.9380000
  -4.1160000 -33.9670000  13.6550000  -5.4340000 -34.4330000  12.5880000
  -4.0810000 -32.9540000  11.7570000  -4.7860000 -32.5710000  11.0170000
  -3.5030000 -32.1030000  12.1230000  -3.1140000 -33.9590000  11.1000000
  -2.4710000 -33.4320000  10.3920000  -2.4620000 -34.3690000  11.8730000
  -3.8080000 -35.1360000  10.3850000  -3.0490000 -35.8760000  10.1200000
  -4.4890000 -35.6380000  11.0760000  -4.5840000 -34.7580000   9.1110000
  -5.0580000 -35.6650000   8.7300000  -5.3850000 -34.0600000   9.3630000
  -3.6900000 -34.1400000   8.0570000  -3.4350000 -33.0970000   8.2250000
  -3.2060000 -34.7640000   6.9880000  -2.5670000 -34.2170000   6.2990000
  -3.4670000 -36.2100000   6.6220000  -2.8760000 -36.8630000   7.2670000
  -4.5190000 -36.4660000   6.7650000  -3.0800000 -36.4880000   5.1610000
  -3.7510000 -35.9320000   4.5030000  -2.0660000 -36.1250000   4.9820000
  -3.1380000 -37.9930000   4.8320000  -2.4680000 -38.5260000   5.5110000
  -4.1470000 -38.3710000   5.0100000  -2.7160000 -38.3050000   3.3850000
  -1.7710000 -37.7990000   3.1770000  -2.5340000 -39.3770000   3.2940000
  -3.7840000 -37.8980000   2.3510000  -4.6830000 -38.4910000   2.5320000
  -4.0650000 -36.8520000   2.4910000  -3.3380000 -38.1180000   0.8920000
  -3.0510000 -39.1630000   0.7650000  -4.1930000 -37.9410000   0.2360000
  -2.1710000 -37.2170000   0.4350000  -1.2850000 -37.4160000   1.0430000
  -1.9150000 -37.4750000  -0.5940000  -2.4910000 -35.7150000   0.5030000
  -1.6620000 -35.1330000   0.0950000  -2.6530000 -35.3960000   1.5350000
  -3.3870000 -35.4900000  -0.0800000 -28.2730000  20.0030000   2.1630000
 -28.6150000  19.5410000   1.2340000 -27.6150000  19.3000000   2.6770000
 -27.7020000  20.8980000   1.9090000 -29.4740000  20.3660000   3.0500000
 -30.0400000  19.4570000   3.2660000 -30.1320000  21.0410000   2.4970000
 -29.0420000  21.0400000   4.3670000 -28.3940000  21.8870000   4.1320000
 -28.4460000  20.3390000   4.9550000 -30.2260000  21.5590000   5.2120000
 -30.7390000  22.3390000   4.6460000 -29.8310000  22.0350000   6.1120000
 -31.2590000  20.4900000   5.6260000 -31.6740000  20.0150000   4.7350000
 -32.0870000  21.0000000   6.1240000 -30.6730000  19.4080000   6.5570000
 -30.2850000  19.8690000   7.4690000 -29.8230000  18.9510000   6.0450000
 -31.6480000  18.2690000   6.9210000 -31.0470000  17.3860000   7.1490000
 -32.2500000  18.0150000   6.0460000 -32.5720000  18.5140000   8.1340000
 -31.9590000  18.7070000   9.0170000 -33.1240000  17.5920000   8.3260000
 -33.5850000  19.6610000   7.9540000 -34.0530000  19.5770000   6.9710000
 -33.0550000  20.6140000   7.9870000 -34.6970000  19.6870000   9.0220000
 -35.3060000  18.7850000   8.9370000 -35.3510000  20.5350000   8.8090000
 -34.1630000  19.8140000  10.4620000 -33.4140000  20.6080000  10.4910000
 -33.6720000  18.8860000  10.7620000 -35.2880000  20.1540000  11.4560000
 -36.0660000  19.3880000  11.4140000 -35.7440000  21.0950000  11.1440000
 -34.7870000  20.2910000  12.9070000 -33.8330000  20.8240000  12.9200000
 -34.6050000  19.2990000  13.3260000 -35.7890000  21.0720000  13.7790000
 -36.7130000  20.4970000  13.8770000 -36.0390000  21.9990000  13.2600000
 -35.2550000  21.4520000  15.1770000 -35.9730000  22.1030000  15.6800000
 -34.3310000  22.0230000  15.0670000 -34.9810000  20.2700000  16.0770000
 -35.3800000  19.1360000  15.8750000 -34.2630000  20.6400000  17.1560000
 -33.5350000  19.6200000  17.8950000 -34.0690000  18.6670000  17.8720000
 -33.4760000  19.9390000  18.9390000 -32.0860000  19.4370000  17.3530000
 -31.6540000  18.5860000  17.8870000 -31.1810000  20.6820000  17.6020000
 -30.1600000  20.4610000  17.2810000 -31.1600000  20.8940000  18.6740000
 -31.6250000  21.8690000  16.8910000 -30.8990000  23.3030000  17.0940000
 -31.7170000  23.9470000  18.3220000 -31.2680000  23.8070000  19.6810000
 -30.3880000  24.4400000  19.8230000 -30.9900000  22.7710000  19.8880000
 -32.4060000  24.2690000  20.6200000 -32.7430000  25.2560000  20.2980000
 -32.0110000  24.3620000  21.6330000 -33.6450000  23.4090000  20.7320000
 -34.3450000  23.2410000  19.4210000 -34.5800000  24.2310000  19.0260000
 -35.2560000  22.6620000  19.5750000 -33.6800000  22.7200000  18.7310000
 -33.3120000  22.0610000  21.2870000 -32.8250000  22.1930000  22.2540000
 -32.6460000  21.5470000  20.5930000 -34.2380000  21.4970000  21.4090000
 -34.5940000  24.0700000  21.6770000 -34.1060000  24.1680000  22.6490000
 -35.4870000  23.4500000  21.7660000 -34.8510000  25.0540000  21.2820000
 -29.4930000  23.0750000  17.5310000 -31.1480000  24.1470000  15.8930000
 -32.1280000  19.1180000  15.9320000 -31.0530000  18.5330000  15.3650000
 -30.0330000  18.2480000  15.9750000 -31.2600000  18.3040000  13.8820000
 -31.6960000  17.3110000  13.7490000 -31.9960000  19.0190000  13.5110000
 -29.9550000  18.4040000  13.0600000 -29.2930000  17.6020000  13.3930000
 -30.1740000  18.2050000  12.0090000 -29.1770000  19.7370000  13.1730000
 -29.1750000  20.0840000  14.2080000 -28.1350000  19.5260000  12.9240000
 -29.6390000  20.8860000  12.2510000 -28.9330000  21.7100000  12.3710000
 -29.5770000  20.5640000  11.2090000 -31.0580000  21.4120000  12.5300000
 -31.7820000  20.6840000  12.1580000 -31.2020000  21.5110000  13.6080000
 -31.3260000  22.7750000  11.8610000 -30.5820000  23.4950000  12.2080000
 -31.2100000  22.6800000  10.7790000 -32.7340000  23.3120000  12.1780000
 -33.4850000  22.6300000  11.7740000 -32.8700000  23.3260000  13.2620000
 -32.9310000  24.7150000  11.6440000 -32.4340000  25.4890000  12.2230000
 -33.6790000  25.0720000  10.6040000 -33.7550000  26.1270000  10.3510000
 -34.4290000  24.1440000   9.6700000 -34.1990000  23.0950000   9.8680000
 -35.5040000  24.2780000   9.8110000 -34.0830000  24.4630000   8.2060000
 -34.3570000  25.4960000   7.9810000 -33.0040000  24.3700000   8.0660000
 -34.8010000  23.5190000   7.2270000 -34.5700000  22.4860000   7.4930000
 -35.8810000  23.6480000   7.3250000 -34.3810000  23.7670000   5.7670000
 -34.6490000  24.7860000   5.4790000 -33.2970000  23.6700000   5.6870000
 -35.0650000  22.7690000   4.8180000 -34.8140000  21.7540000   5.1350000
 -36.1470000  22.8780000   4.9170000 -34.6810000  22.9360000   3.3360000
 -35.3030000  22.2620000   2.7430000 -34.9050000  23.9540000   3.0090000
 -33.2000000  22.6140000   3.0610000 -32.5660000  23.3650000   3.5370000
 -32.9550000  21.6450000   3.5010000 -32.8760000  22.5650000   1.5600000
 -31.8180000  22.3420000   1.4080000 -33.0960000  23.5270000   1.0900000
 -33.4680000  21.7930000   1.0640000  17.1490000  38.5020000   4.1110000
  17.1190000  39.4520000   4.6480000  16.1250000  38.1350000   4.0150000
  17.5480000  38.6770000   3.1100000  18.0110000  37.4750000   4.8650000
  17.9170000  36.5100000   4.3630000  17.6140000  37.3440000   5.8730000
  19.5080000  37.8500000   4.9320000  19.9180000  37.8140000   3.9200000
  20.0370000  37.0900000   5.5120000  19.8100000  39.2430000   5.5220000
  19.3160000  39.9940000   4.9010000  20.8800000  39.4430000   5.4410000
  19.3610000  39.4430000   6.9850000  18.5040000  38.8070000   7.2160000
  19.0110000  40.4720000   7.0870000  20.4770000  39.2320000   8.0290000
  20.1090000  39.5770000   8.9980000  21.3240000  39.8710000   7.7710000
  20.9890000  37.7910000   8.2070000  21.7930000  37.8150000   8.9460000
  21.4240000  37.4320000   7.2730000  19.9000000  36.8120000   8.6880000
  19.2700000  36.5210000   7.8450000  19.2580000  37.3180000   9.4120000
  20.4790000  35.5520000   9.3630000  19.6470000  34.9240000   9.6870000
  21.0190000  35.8530000  10.2630000  21.4300000  34.7380000   8.4620000
  22.2490000  35.3830000   8.1370000  20.9000000  34.4080000   7.5660000
  22.0440000  33.5220000   9.1820000  22.5300000  33.8720000  10.0950000
  22.8230000  33.0970000   8.5460000  21.0220000  32.4150000   9.5140000
  20.5850000  32.0530000   8.5810000  20.2050000  32.8260000  10.1110000
  21.6400000  31.2130000  10.2520000  22.4770000  30.8340000   9.6630000
  20.9010000  30.4100000  10.3080000  22.1320000  31.5410000  11.6740000
  22.8310000  32.3780000  11.6280000  22.6910000  30.6880000  12.0650000
  20.9930000  31.8910000  12.6480000  20.2620000  31.0800000  12.6760000
  20.4790000  32.7940000  12.3130000  21.5190000  32.1170000  14.0400000
  21.7010000  31.2210000  14.8440000  21.7710000  33.4180000  14.2880000
  22.1950000  33.8380000  15.6210000  22.8930000  34.6700000  15.4960000
  22.7370000  33.0360000  16.1270000  20.9950000  34.3040000  16.4990000
  21.3750000  34.6420000  17.4670000  19.9790000  33.1610000  16.7100000
  20.4920000  32.2330000  16.9740000  19.4270000  33.0070000  15.7790000
  19.0300000  33.4960000  17.7530000  19.2930000  33.0610000  19.2750000
  18.3030000  34.0290000  20.0960000  18.7710000  35.2530000  20.7020000
  19.7220000  35.0690000  21.2080000  18.0500000  35.5590000  21.4650000
  18.9370000  36.3770000  19.6490000  19.6190000  36.0390000  18.8670000
  19.3890000  37.2380000  20.1450000  17.7060000  36.9070000  18.9510000
  16.6080000  37.1910000  19.9200000  16.2830000  36.2500000  20.3680000
  15.7820000  37.6610000  19.3840000  16.9830000  37.8740000  20.6840000
  18.0530000  38.1900000  18.2680000  18.8510000  38.0080000  17.5470000
  18.3780000  38.9100000  19.0210000  17.1660000  38.5780000  17.7660000
  17.2120000  35.9410000  17.9250000  18.0130000  35.7370000  17.2140000
  16.3440000  36.3690000  17.4210000  16.9400000  35.0150000  18.4350000
  18.8250000  31.6620000  19.4500000  20.7010000  33.3920000  19.6150000
  20.2640000  35.3920000  15.8690000  20.8430000  36.5900000  15.6920000
  21.9470000  36.8840000  16.1140000  19.9570000  37.5420000  14.9220000
  18.9200000  37.4260000  15.2430000  20.2600000  38.5610000  15.1720000
  20.0750000  37.3420000  13.3940000  20.1120000  38.3270000  12.9240000
  21.0200000  36.8500000  13.1550000  18.9110000  36.5640000  12.7430000
  17.9900000  37.1380000  12.8660000  19.1050000  36.4940000  11.6710000
  18.6820000  35.1490000  13.3040000  19.6440000  34.6460000  13.4190000
  18.2270000  35.2270000  14.2940000  17.7830000  34.2840000  12.4020000
  16.8770000  34.8370000  12.1460000  18.3140000  34.0710000  11.4710000
  17.3870000  32.9630000  13.0910000  18.2740000  32.4750000  13.5010000
  16.7330000  33.1950000  13.9350000  16.6580000  31.9840000  12.1530000
  16.1790000  31.2190000  12.7680000  15.8610000  32.5080000  11.6220000
  17.6130000  31.2950000  11.1970000  18.2620000  30.5570000  11.6610000
  17.6650000  31.4530000   9.8780000  18.3760000  30.8590000   9.3110000
  16.8810000  32.4640000   9.0630000  16.0090000  31.9780000   8.6210000
  16.5250000  33.2810000   9.6940000  17.7320000  33.0510000   7.9200000
  17.2060000  33.9090000   7.4960000  18.6710000  33.4240000   8.3340000
  18.0270000  32.0380000   6.7930000  18.3050000  31.0740000   7.2260000
  17.1130000  31.8750000   6.2170000  19.1600000  32.4670000   5.8390000
  20.1080000  32.4460000   6.3800000  19.2310000  31.7230000   5.0430000
  18.9720000  33.8670000   5.2210000  18.0180000  33.9110000   4.6930000
  18.9290000  34.6090000   6.0210000  20.1210000  34.2610000   4.2690000
  19.9700000  35.2950000   3.9500000  21.0630000  34.2370000   4.8200000
  20.2570000  33.3860000   3.0080000  21.0960000  33.7630000   2.4200000
  20.5020000  32.3600000   3.2890000  18.9960000  33.3890000   2.1280000
  19.1930000  32.8640000   1.1910000  18.6950000  34.4110000   1.8900000
  18.1670000  32.8880000   2.6330000  26.7350000  -2.1520000   2.9620000
  26.1920000  -2.5410000   2.0980000  27.7990000  -2.3530000   2.8190000
  26.5860000  -1.0710000   3.0020000  26.2290000  -2.8230000   4.2510000
  26.3270000  -3.9060000   4.1440000  25.1650000  -2.6080000   4.3730000
  26.9890000  -2.3800000   5.5160000  28.0560000  -2.5690000   5.3800000
  26.6600000  -2.9950000   6.3560000  26.7700000  -0.8960000   5.8710000
  25.7000000  -0.7050000   5.9740000  27.1410000  -0.2710000   5.0570000
  27.4830000  -0.5080000   7.1820000  28.5570000  -0.6760000   7.0710000
  27.1430000  -1.1710000   7.9800000  27.2260000   0.9500000   7.6180000
  27.7290000   1.1250000   8.5700000  26.1570000   1.0740000   7.8040000
  27.6730000   2.0250000   6.6030000  27.4920000   3.0110000   7.0350000
  27.0450000   1.9530000   5.7130000  29.1460000   1.9300000   6.1570000
  29.3690000   2.7660000   5.4910000  29.2800000   1.0190000   5.5690000
  30.1700000   1.9210000   7.3060000  31.1650000   1.7730000   6.8820000
  29.9670000   1.0580000   7.9440000  30.1930000   3.2000000   8.1640000
  29.2420000   3.3110000   8.6890000  30.3020000   4.0700000   7.5130000
  31.3550000   3.1970000   9.1830000  31.2650000   4.0750000   9.8250000
  32.2950000   3.3040000   8.6360000  31.4470000   1.9220000  10.0530000
  32.3330000   1.9840000  10.6880000  31.6030000   1.0550000   9.4070000
  30.2120000   1.6710000  10.9390000  30.1920000   0.6160000  11.2180000
  29.3010000   1.8650000  10.3700000  30.2200000   2.5160000  12.2290000
  30.6270000   3.5040000  12.0080000  30.8890000   2.0530000  12.9570000
  28.8310000   2.7230000  12.8610000  28.9530000   3.3330000  13.7590000
  28.2020000   3.2910000  12.1710000  28.1050000   1.4460000  13.2330000
  27.7630000   0.5960000  12.4280000  27.8060000   1.4080000  14.5510000
  27.0950000   0.2520000  15.0850000  26.4310000  -0.1770000  14.3300000
  26.4660000   0.6100000  15.9040000  28.0130000  -0.8610000  15.6640000
  27.3550000  -1.7230000  15.8050000  28.6050000  -0.4960000  17.0520000
  29.0440000  -1.3920000  17.4980000  27.7870000  -0.1660000  17.6990000
  29.5950000   0.5700000  16.9860000  31.1830000   0.3010000  17.2040000
  31.3480000   0.4910000  18.7960000  31.1190000  -0.6000000  19.7070000
  31.9930000  -1.2560000  19.6940000  30.2470000  -1.1810000  19.3940000
  30.9020000  -0.0340000  21.1310000  31.7500000   0.6000000  21.3940000
  30.8710000  -0.8680000  21.8340000  29.6580000   0.7820000  21.4020000
  29.6710000   2.0800000  20.6640000  30.5740000   2.6270000  20.9400000
  28.7800000   2.6490000  20.9360000  29.6750000   1.8690000  19.5940000
  28.4220000   0.0250000  21.0360000  28.4240000  -0.9280000  21.5680000
  28.4190000  -0.1370000  19.9570000  27.5540000   0.6180000  21.3270000
  29.5970000   1.0850000  22.8620000  29.5580000   0.1460000  23.4150000
  28.7000000   1.6750000  23.0580000  30.4880000   1.6500000  23.1380000
  31.5180000  -1.1100000  16.8600000  31.9410000   1.3980000  16.5410000
  29.0660000  -1.2140000  14.7200000  29.4710000  -2.5010000  14.6870000
  29.0650000  -3.3780000  15.4390000  30.4880000  -2.7740000  13.6020000
  31.3540000  -2.1250000  13.7480000  30.8270000  -3.8080000  13.6950000
  29.8970000  -2.5460000  12.1980000  28.9340000  -3.0530000  12.1190000
  29.7260000  -1.4780000  12.0450000  30.8310000  -3.0910000  11.1060000
  31.8540000  -2.7660000  11.3100000  30.8120000  -4.1810000  11.1620000
  30.4520000  -2.6620000   9.6790000  29.4090000  -2.9200000   9.4790000
  30.5490000  -1.5780000   9.5900000  31.3620000  -3.3650000   8.6520000
  32.4080000  -3.1770000   8.9050000  31.2100000  -4.4430000   8.7380000
  31.1020000  -2.9450000   7.1920000  31.5880000  -3.6610000   6.5260000
  30.0300000  -2.9990000   6.9900000  31.6120000  -1.5340000   6.8460000
  31.2710000  -1.2750000   5.8410000  31.1520000  -0.8140000   7.5260000
  33.1230000  -1.4310000   6.9620000  33.5040000  -1.4790000   7.9790000
  33.9830000  -1.2500000   5.9630000  35.0430000  -1.1700000   6.1880000
  33.6420000  -1.1890000   4.4860000  34.3730000  -1.7760000   3.9250000
  32.6680000  -1.6410000   4.2870000  33.6520000   0.2550000   3.9460000
  34.6630000   0.6610000   4.0130000  33.3780000   0.2290000   2.8890000
  32.6870000   1.1820000   4.7090000  31.7060000   0.7060000   4.7740000
  33.0520000   1.3010000   5.7310000  32.5260000   2.5850000   4.0950000
  31.8740000   3.1700000   4.7470000  33.4950000   3.0880000   4.0840000
  31.9370000   2.6020000   2.6720000  31.7390000   3.6440000   2.4110000
  32.6790000   2.2280000   1.9640000  30.6400000   1.7830000   2.5170000
  30.8730000   0.7200000   2.5990000  29.9490000   2.0310000   3.3260000
  29.9400000   2.0420000   1.1720000  29.5810000   3.0730000   1.1430000
  30.6510000   1.9190000   0.3520000  28.7550000   1.0910000   0.9540000
  28.2710000   1.3090000  -0.0000000  28.0230000   1.2090000   1.7550000
  29.0930000   0.0520000   0.9430000  38.1780000   5.7840000   2.2980000
  38.6980000   5.5270000   1.3730000  37.3590000   5.0760000   2.4380000
  38.8780000   5.6720000   3.1290000  37.6630000   7.2310000   2.2320000
  36.9840000   7.3320000   1.3820000  38.5140000   7.8890000   2.0470000
  36.9470000   7.7000000   3.5140000  36.7500000   8.7700000   3.4240000
  37.6080000   7.5610000   4.3720000  35.6210000   6.9570000   3.7590000
  35.8150000   5.8850000   3.8280000  34.9610000   7.1160000   2.9040000
  34.8870000   7.3790000   5.0430000  35.4990000   7.0980000   5.9030000
  33.9590000   6.8060000   5.1050000  34.5570000   8.8820000   5.1190000
  34.1790000   9.2130000   4.1500000  35.4670000   9.4500000   5.3270000
  33.4930000   9.2010000   6.1870000  32.5710000   8.6800000   5.9220000
  33.2730000  10.2710000   6.1650000  33.9070000   8.8010000   7.6170000
  34.7300000   9.4350000   7.9530000  34.2580000   7.7670000   7.6220000
  32.7210000   8.9160000   8.5890000  31.9360000   8.2340000   8.2570000
  32.3120000   9.9280000   8.5420000  33.0720000   8.5890000  10.0510000
  32.1600000   8.6730000  10.6440000  33.7700000   9.3400000  10.4280000
  33.6850000   7.1890000  10.2620000  34.6910000   7.1610000   9.8380000
  33.0820000   6.4370000   9.7480000  33.7480000   6.8560000  11.7610000
  32.7260000   6.7440000  12.1300000  34.1900000   7.7030000  12.2900000
  34.5540000   5.5960000  12.1270000  34.6070000   5.5400000  13.2170000
  35.5770000   5.7120000  11.7620000  33.9800000   4.2680000  11.5950000
  34.1410000   4.2050000  10.5170000  32.9020000   4.2550000  11.7650000
  34.5950000   3.0290000  12.2890000  34.3620000   3.0590000  13.3550000
  34.1510000   2.1160000  11.8870000  36.0950000   2.9480000  12.1180000
  36.6410000   2.3440000  11.2110000  36.7490000   3.6190000  13.0820000
  38.1820000   3.8450000  12.9690000  38.4590000   3.9020000  11.9130000
  38.7230000   3.0080000  13.4180000  38.5950000   5.1970000  13.6230000
  39.6510000   5.3530000  13.3870000  38.4300000   5.2500000  15.1740000
  38.8030000   6.2080000  15.5460000  39.0460000   4.4700000  15.6290000
  37.0570000   5.0560000  15.6190000  36.1900000   6.2490000  16.3000000
  36.6480000   6.1590000  17.8440000  36.1950000   5.0900000  18.6980000
  36.9280000   4.9530000  19.4970000  36.1440000   4.1620000  18.1230000
  34.8090000   5.4170000  19.3090000  34.5280000   4.6000000  19.9760000
  34.0670000   5.4720000  18.5110000  34.6530000   6.6850000  20.1130000
  34.5640000   7.8810000  19.2260000  35.4920000   7.9550000  18.6580000
  34.4190000   8.7680000  19.8450000  33.7160000   7.7460000  18.5530000
  33.3850000   6.6030000  20.8930000  33.4520000   5.7650000  21.5880000
  32.5590000   6.4550000  20.1960000  33.2500000   7.5390000  21.4370000
  35.7790000   6.8740000  21.0750000  35.8390000   5.9940000  21.7180000
  35.5830000   7.7670000  21.6700000  36.7000000   6.9960000  20.5030000
  36.6540000   7.5710000  15.7930000  34.7410000   5.9110000  16.2150000
  37.8180000   6.2490000  12.9940000  38.2570000   7.5170000  13.0540000
  39.3500000   7.8400000  13.5000000  37.2660000   8.4820000  12.4430000
  36.5340000   7.9350000  11.8450000  36.7150000   8.9660000  13.2520000
  37.9530000   9.5470000  11.5730000  37.2030000  10.2660000  11.2360000
  38.6550000  10.1000000  12.2000000  38.6960000   8.9980000  10.3390000
  39.1830000   9.8400000   9.8430000  39.4970000   8.3240000  10.6500000
  37.7900000   8.3000000   9.3030000  36.7690000   8.6820000   9.3760000
  38.1490000   8.5760000   8.3090000  37.7870000   6.7610000   9.4120000
  38.8150000   6.4090000   9.5210000  37.2370000   6.4550000  10.3050000
  37.1600000   6.0970000   8.1700000  36.1650000   6.5180000   8.0070000
  37.7600000   6.3470000   7.2920000  37.0260000   4.5630000   8.2580000
  36.2660000   4.3160000   9.0020000  36.6590000   4.1800000   7.3030000
  38.3220000   3.8730000   8.6350000  38.3860000   3.5680000   9.6760000
  39.3250000   3.5780000   7.8140000  40.1890000   3.0520000   8.2100000
  39.4180000   3.9280000   6.3430000  38.4760000   4.3270000   5.9600000
  40.1780000   4.7000000   6.2110000  39.8290000   2.6920000   5.5210000
  40.7180000   2.2400000   5.9660000  39.0260000   1.9540000   5.5710000
  40.1320000   3.0420000   4.0520000  39.2670000   3.5460000   3.6160000
  40.9620000   3.7510000   4.0230000  40.5020000   1.8170000   3.1910000
  40.8270000   2.1690000   2.2100000  41.3570000   1.3110000   3.6440000
  39.3620000   0.7970000   2.9900000  39.7420000  -0.0270000   2.3830000
  39.0700000   0.3720000   3.9530000  38.1220000   1.3910000   2.2920000
  37.6790000   2.1670000   2.9200000  38.4280000   1.8600000   1.3550000
  37.0520000   0.3240000   1.9980000  37.4890000  -0.4750000   1.3960000
  36.7140000  -0.1200000   2.9360000  35.8450000   0.9140000   1.2510000
  35.0890000   0.1430000   1.0920000  36.1500000   1.3020000   0.2770000
  35.3960000   1.7260000   1.8260000  27.5050000  10.6690000   1.8030000
  28.5620000  10.9320000   1.8860000  26.9250000  11.5910000   1.7300000
  27.3650000  10.0920000   0.8860000  27.0780000   9.8470000   3.0270000
  27.2130000  10.4420000   3.9330000  27.7440000   8.9860000   3.1110000
  25.6270000   9.3360000   2.9440000  25.4170000   8.7360000   3.8320000
  25.5520000   8.6520000   2.0970000  24.5440000  10.4270000   2.7700000
  23.5630000   9.9490000   2.8100000  24.6470000  10.8320000   1.7610000
  24.5580000  11.6250000   3.7500000  23.9990000  12.4340000   3.2760000
  25.5770000  11.9960000   3.8770000  23.9160000  11.3900000   5.1330000
  22.8710000  11.0980000   5.0040000  23.9170000  12.3400000   5.6710000
  24.6280000  10.3360000   5.9950000  25.7000000  10.5440000   6.0010000
  24.4780000   9.3480000   5.5550000  24.1150000  10.2880000   7.4430000
  23.0550000  10.0250000   7.4550000  24.2230000  11.2710000   7.9070000
  24.9220000   9.2520000   8.2390000  25.9780000   9.5260000   8.1890000
  24.8250000   8.2780000   7.7560000  24.5010000   9.1350000   9.7120000
  23.4850000   8.7380000   9.7590000  24.4980000  10.1260000  10.1720000
  25.4450000   8.2100000  10.5000000  26.4610000   8.6060000  10.4430000
  25.4560000   7.2230000  10.0320000  25.0280000   8.0750000  11.9760000
  23.9840000   7.7600000  12.0250000  25.0930000   9.0530000  12.4560000
  25.8830000   7.0640000  12.7660000  25.7180000   6.0630000  12.3620000
  25.5330000   7.0540000  13.8000000  27.3930000   7.3740000  12.7440000
  27.5540000   8.4170000  13.0230000  27.7780000   7.2410000  11.7310000
  28.1750000   6.4560000  13.7070000  28.0270000   5.4130000  13.4220000
  27.7840000   6.5710000  14.7200000  29.6610000   6.7430000  13.7360000
  30.2470000   7.4260000  12.9170000  30.2550000   6.1530000  14.7930000
  31.6560000   6.4510000  15.0850000  32.2160000   6.6810000  14.1750000
  32.1020000   5.5580000  15.5310000  31.7810000   7.6150000  16.1020000
  32.8370000   7.8110000  16.3050000  31.1060000   7.2310000  17.4360000
  31.5240000   6.2950000  17.8170000  30.0360000   7.0920000  17.2630000
  31.3000000   8.2770000  18.4240000  30.3420000   8.3870000  19.7150000
  28.9750000   8.9480000  19.0900000  28.8840000  10.3100000  18.6380000
  29.6330000  10.4940000  17.8640000  29.0800000  10.9780000  19.4810000
  27.4560000  10.5680000  18.1080000  27.3600000  11.6270000  17.8610000
  26.7360000  10.3440000  18.8970000  26.9880000   9.8180000  16.8840000
  26.7920000   8.3630000  17.1630000  27.7550000   7.9320000  17.4380000
  26.3940000   7.8760000  16.2710000  26.0940000   8.2630000  17.9960000
  25.6770000  10.3860000  16.4620000  25.8150000  11.4460000  16.2420000
  24.9770000  10.2770000  17.2920000  25.3200000   9.8560000  15.5780000
  27.9470000   9.9760000  15.7500000  28.1000000  11.0420000  15.5760000
  27.5180000   9.5070000  14.8630000  28.8850000   9.4910000  16.0230000
  30.0870000   7.0160000  20.2350000  30.9090000   9.4060000  20.6400000
  31.1420000   8.8240000  15.5920000  31.8480000   9.6090000  14.7530000
  32.9750000   9.3680000  14.3580000  31.0900000  10.8550000  14.3590000
  30.4040000  11.1400000  15.1590000  31.7990000  11.6770000  14.2380000
  30.3230000  10.6450000  13.0440000  30.9890000  10.1750000  12.3170000
  29.4890000   9.9630000  13.2210000  29.7920000  11.9660000  12.4600000
  29.2620000  12.5170000  13.2390000  30.6340000  12.5840000  12.1410000
  28.8340000  11.7560000  11.2730000  27.9330000  11.2560000  11.6330000
  28.5290000  12.7330000  10.8920000  29.4350000  10.9300000  10.1180000
  30.3390000  11.4170000   9.7460000  29.7150000   9.9390000  10.4820000
  28.4160000  10.7750000   8.9750000  27.5080000  10.3260000   9.3840000
  28.1390000  11.7670000   8.6120000  28.9140000   9.9250000   7.7880000
  28.1920000   9.9950000   6.9720000  29.8470000  10.3590000   7.4210000
  29.1600000   8.4840000   8.1930000  29.9000000   8.3560000   8.9780000
  28.6030000   7.3990000   7.6610000  28.8990000   6.4230000   8.0380000
  27.5310000   7.3580000   6.5890000  26.7890000   6.6040000   6.8600000
  26.9990000   8.3090000   6.5260000  28.0950000   7.0210000   5.1960000
  27.2590000   6.9520000   4.4970000  28.7300000   7.8460000   4.8660000
  28.9040000   5.7090000   5.1470000  29.8500000   5.8480000   5.6740000
  28.3510000   4.9310000   5.6780000  29.1850000   5.2110000   3.7140000
  29.8430000   4.3420000   3.7730000  28.2470000   4.8660000   3.2730000
  29.8110000   6.2480000   2.7620000  29.9460000   5.7770000   1.7860000
  29.1060000   7.0700000   2.6190000  31.1690000   6.8040000   3.2380000
  31.0370000   7.3440000   4.1770000  31.8480000   5.9720000   3.4370000
  31.8310000   7.7440000   2.2100000  32.7830000   8.0940000   2.6160000
  32.0580000   7.1850000   1.3000000  30.9710000   8.9670000   1.8440000
  31.5310000   9.6370000   1.1880000  30.6870000   9.5200000   2.7420000
  30.0630000   8.6630000   1.3190000  26.7070000  18.0580000  -1.1490000
  27.1510000  18.3080000  -2.1150000  25.8890000  18.7530000  -0.9470000
  26.2950000  17.0490000  -1.2120000  27.7640000  18.1440000  -0.0370000
  28.1000000  19.1780000   0.0660000  28.6300000  17.5410000  -0.3170000
  27.2020000  17.6410000   1.3020000  26.8440000  16.6180000   1.1680000
  26.3440000  18.2570000   1.5800000  28.2480000  17.6560000   2.4340000
  28.5650000  18.6820000   2.6310000  29.1310000  17.1010000   2.1080000
  27.7200000  17.0150000   3.7320000  28.5490000  16.9030000   4.4330000
  27.3520000  16.0120000   3.5060000  26.6090000  17.8460000   4.4040000
  25.8060000  18.0560000   3.6950000  27.0280000  18.8070000   4.7090000
  26.0070000  17.1670000   5.6450000  25.4020000  17.9060000   6.1740000
  26.8160000  16.8630000   6.3120000  25.1190000  15.9540000   5.3070000
  25.7230000  15.1550000   4.8710000  24.3910000  16.2570000   4.5520000
  24.3420000  15.4070000   6.5200000  23.5980000  14.6980000   6.1510000
  23.7860000  16.2240000   6.9840000  25.2140000  14.6860000   7.5710000
  26.2430000  14.6100000   7.2140000  24.8480000  13.6620000   7.6720000
  25.2070000  15.3370000   8.9700000  25.7640000  14.6870000   9.6490000
  24.1810000  15.3870000   9.3400000  25.8410000  16.7420000   8.9970000
  25.2140000  17.4440000   8.4420000  26.8090000  16.6960000   8.4940000
  26.0780000  17.2850000  10.4160000  26.6670000  18.2010000  10.3400000
  26.6800000  16.5640000  10.9730000  24.7930000  17.5890000  11.2070000
  24.1620000  16.6980000  11.2540000  24.2290000  18.3740000  10.6990000
  25.1490000  18.0360000  12.6380000  25.8210000  18.8970000  12.6080000
  25.6890000  17.2330000  13.1430000  23.9570000  18.4010000  13.4860000
  22.7980000  18.3990000  13.1100000  24.3550000  18.7300000  14.7310000
  23.3740000  18.8190000  15.8030000  22.4380000  19.2510000  15.4390000
  23.7750000  19.4870000  16.5690000  23.1400000  17.4190000  16.4440000
  22.4590000  17.5200000  17.2930000  24.4660000  16.8250000  16.9820000
  24.8160000  17.4380000  17.8160000  25.2280000  16.8360000  16.1980000
  24.2860000  15.4540000  17.4360000  25.3900000  14.7160000  18.3560000
  24.8040000  14.9430000  19.8340000  23.7790000  14.0680000  20.3410000
  24.2080000  13.0720000  20.4810000  22.9650000  13.9940000  19.6160000
  23.2590000  14.5990000  21.6970000  24.0930000  14.6820000  22.3950000
  22.5510000  13.8720000  22.0990000  22.5440000  15.9300000  21.7250000
  21.4840000  16.0040000  20.6720000  21.9650000  15.9680000  19.6940000
  20.9380000  16.9400000  20.7940000  20.8110000  15.1540000  20.8000000
  21.8890000  16.0900000  23.0570000  22.6560000  16.0420000  23.8310000
  21.1660000  15.2840000  23.1910000  21.3840000  17.0570000  23.0860000
  23.4980000  17.0650000  21.5440000  24.2380000  17.0260000  22.3450000
  22.9430000  18.0030000  21.5850000  23.9900000  16.9530000  20.5770000
  25.3670000  13.2630000  18.0440000  26.6840000  15.4490000  18.2580000
  22.5610000  16.4990000  15.4730000  21.2470000  16.6070000  15.2050000
  20.5280000  17.4540000  15.7070000  20.7420000  15.5470000  14.2580000
  21.5800000  14.9490000  13.8940000  20.0870000  14.8840000  14.8270000
  19.9680000  16.1410000  13.0640000  19.2220000  16.8520000  13.4250000
  20.6630000  16.6880000  12.4220000  19.2570000  15.0380000  12.2560000
  19.9880000  14.3020000  11.9150000  18.5690000  14.5110000  12.9210000
  18.4480000  15.5690000  11.0540000  17.9060000  14.7340000  10.6050000
  17.6970000  16.2720000  11.4190000  19.2780000  16.2650000   9.9570000
  18.5940000  16.5960000   9.1720000  19.7530000  17.1610000  10.3630000
  20.3530000  15.3470000   9.3440000  21.0870000  15.0880000  10.1100000
  19.8880000  14.4150000   9.0130000  21.1000000  15.9810000   8.1570000
  21.5820000  16.9030000   8.4870000  21.8870000  15.2820000   7.8640000
  20.1820000  16.2050000   6.9700000  19.4550000  15.4130000   6.8080000
  20.1760000  17.2550000   6.1530000  19.4450000  17.2850000   5.3490000
  21.1050000  18.4540000   6.2050000  20.5070000  19.3630000   6.2950000
  21.7610000  18.4200000   7.0780000  21.9800000  18.5670000   4.9400000
  22.6250000  19.4420000   5.0470000  22.6310000  17.6920000   4.8790000
  21.1680000  18.6970000   3.6330000  20.6400000  17.7620000   3.4340000
  20.4070000  19.4660000   3.7750000  22.0280000  19.0780000   2.4080000
  21.3670000  19.2940000   1.5660000  22.5600000  20.0050000   2.6320000
  23.0580000  18.0160000   1.9720000  23.7250000  18.4670000   1.2350000
  23.6750000  17.7310000   2.8270000  22.4100000  16.7660000   1.3450000
  21.7940000  16.2560000   2.0880000  21.7480000  17.0800000   0.5360000
  23.4400000  15.7730000   0.7710000  22.9060000  14.9840000   0.2370000
  24.0720000  16.2810000   0.0390000  24.3270000  15.1270000   1.8480000
  24.9530000  14.3490000   1.4060000  23.7120000  14.6720000   2.6270000
  24.9780000  15.8710000   2.3110000   0.3020000 -39.7850000   1.0290000
   0.0730000 -40.5170000   0.2520000   0.5080000 -38.8280000   0.5450000
  -0.5780000 -39.6770000   1.6680000   1.5100000 -40.2490000   1.8560000
   2.3940000 -40.2690000   1.2160000   1.3370000 -41.2710000   2.1990000
   1.7800000 -39.3520000   3.0790000   2.6750000 -39.7230000   3.5840000
   0.9480000 -39.4540000   3.7790000   1.9740000 -37.8660000   2.7100000
   1.0180000 -37.4170000   2.4340000   2.6100000 -37.8220000   1.8230000
   2.6490000 -37.0170000   3.8070000   3.1030000 -36.1510000   3.3210000
   3.4700000 -37.5840000   4.2510000   1.7370000 -36.4880000   4.9300000
   0.9310000 -35.8960000   4.4910000   2.3330000 -35.8070000   5.5410000
   1.1310000 -37.5590000   5.8550000   1.8970000 -38.2790000   6.1500000
   0.3470000 -38.1010000   5.3210000   0.5240000 -36.9090000   7.1100000
  -0.1940000 -36.1510000   6.7910000   1.3080000 -36.4000000   7.6750000
  -0.1930000 -37.9180000   8.0230000   0.5180000 -38.6440000   8.4240000
  -0.9190000 -38.4720000   7.4250000  -0.9440000 -37.2040000   9.1630000
  -1.8300000 -37.7880000   9.4200000  -1.3140000 -36.2480000   8.7860000
  -0.1240000 -36.9250000  10.4380000  -0.7210000 -36.2800000  11.0850000
   0.7800000 -36.3700000  10.1770000   0.2690000 -38.1710000  11.2520000
   0.6750000 -37.8440000  12.2110000   1.0660000 -38.7100000  10.7340000
  -0.9150000 -39.1280000  11.4950000  -1.1750000 -39.6070000  10.5480000
  -1.7890000 -38.5680000  11.8330000  -0.5780000 -40.2150000  12.5260000
  -0.6620000 -39.8060000  13.5360000   0.4620000 -40.5190000  12.3900000
  -1.4790000 -41.4520000  12.3800000  -1.4600000 -41.8080000  11.3480000
  -2.5120000 -41.1980000  12.6300000  -0.9990000 -42.5670000  13.2710000
  -0.0920000 -43.3210000  12.9700000  -1.6910000 -42.6230000  14.4240000
  -1.2550000 -43.5510000  15.4620000  -0.7030000 -44.3960000  15.0420000
  -2.1440000 -43.9540000  15.9530000  -0.4070000 -42.8150000  16.5320000
  -0.1110000 -43.5360000  17.2980000  -1.2350000 -41.6900000  17.2040000
  -2.2980000 -41.9160000  17.0890000  -1.0400000 -40.7370000  16.7040000
  -0.9730000 -41.5640000  18.6350000   0.4580000 -41.0890000  19.2280000
   0.8130000 -39.8020000  18.3300000   0.2400000 -38.5130000  18.6090000
   0.8640000 -37.9890000  19.3380000  -0.7590000 -38.6430000  19.0320000
   0.1190000 -37.7140000  17.2890000  -0.2360000 -36.7100000  17.5230000
  -0.6210000 -38.1930000  16.6450000   1.3530000 -37.5330000  16.4360000
   2.5430000 -37.1810000  17.2630000   2.3260000 -36.2690000  17.8210000
   3.3890000 -37.0330000  16.5890000   2.7430000 -38.0120000  17.9410000
   1.6450000 -38.7700000  15.6530000   0.7870000 -38.9900000  15.0160000
   1.8130000 -39.5880000  16.3540000   2.5400000 -38.5970000  15.0540000
   1.1220000 -36.4290000  15.4580000   0.2510000 -36.6810000  14.8520000
   2.0100000 -36.3300000  14.8320000   0.9410000 -35.5050000  16.0090000
   0.2360000 -40.6360000  20.6300000   1.4700000 -42.1520000  18.9850000
   0.7740000 -42.2050000  15.9320000   1.8520000 -42.9890000  15.7170000
   1.8440000 -44.2080000  15.8070000   3.0860000 -42.1880000  15.3620000
   3.2090000 -41.4090000  16.1170000   3.9680000 -42.8300000  15.4120000
   2.9930000 -41.5270000  13.9730000   2.0200000 -41.0400000  13.8740000
   3.7490000 -40.7420000  13.9120000   3.2090000 -42.5000000  12.7970000
   4.2230000 -42.9020000  12.8460000   2.5210000 -43.3440000  12.8830000
   2.9990000 -41.8010000  11.4390000   1.9820000 -41.4080000  11.3910000
   3.6840000 -40.9540000  11.3570000   3.2130000 -42.7390000  10.2410000
   4.2150000 -43.1650000  10.3220000   2.5100000 -43.5730000  10.2990000
   3.0720000 -42.0320000   8.8710000   3.8410000 -41.2610000   8.7950000
   3.2750000 -42.7570000   8.0810000   1.6980000 -41.3830000   8.5940000
   1.5280000 -40.5990000   9.3350000   1.7340000 -40.8940000   7.6190000
   0.5670000 -42.3930000   8.6710000   0.5780000 -43.0110000   9.5650000
  -0.4020000 -42.5860000   7.7800000  -1.1430000 -43.3560000   7.9810000
  -0.6210000 -41.8410000   6.4760000  -1.4910000 -41.1900000   6.5870000
   0.2290000 -41.2080000   6.2120000  -0.9030000 -42.8290000   5.3270000
  -0.0040000 -43.4160000   5.1260000  -1.6840000 -43.5250000   5.6400000
  -1.3580000 -42.1220000   4.0350000  -2.2530000 -41.5370000   4.2550000
  -0.5860000 -41.4250000   3.7020000  -1.6770000 -43.1200000   2.9040000
  -0.7500000 -43.5800000   2.5550000  -2.3070000 -43.9190000   3.3020000
  -2.4050000 -42.4560000   1.7180000  -3.2840000 -41.9240000   2.0900000
  -1.7470000 -41.7170000   1.2570000  -2.8540000 -43.4840000   0.6610000
  -1.9760000 -43.9410000   0.2000000  -3.4070000 -44.2810000   1.1630000
  -3.7640000 -42.8930000  -0.4340000  -4.1070000 -43.7040000  -1.0790000
  -4.6500000 -42.4570000   0.0320000  -3.0820000 -41.8260000  -1.3060000
  -3.7830000 -41.4510000  -2.0550000  -2.2220000 -42.2530000  -1.8260000
  -2.7440000 -40.9820000  -0.7020000  25.2110000 -23.6220000  -1.9570000
  26.2010000 -23.3080000  -2.2930000  24.4640000 -22.9850000  -2.4350000
  25.0410000 -24.6510000  -2.2810000  25.1100000 -23.5220000  -0.4280000
  25.2960000 -22.4890000  -0.1290000  25.8910000 -24.1400000   0.0200000
  23.7350000 -23.9900000   0.0900000  23.5520000 -25.0040000  -0.2710000
  22.9500000 -23.3540000  -0.3230000  23.6400000 -23.9950000   1.6280000
  24.4680000 -24.5780000   2.0350000  22.7160000 -24.4990000   1.9180000
  23.6320000 -22.5890000   2.2550000  22.7220000 -22.0660000   1.9550000
  24.4790000 -22.0130000   1.8770000  23.7210000 -22.6370000   3.7920000
  24.6650000 -23.1120000   4.0670000  22.9140000 -23.2490000   4.2010000
  23.6590000 -21.2250000   4.4050000  22.6190000 -20.9150000   4.5190000
  24.1270000 -20.5260000   3.7080000  24.4090000 -21.1040000   5.7430000
  24.4730000 -20.0480000   6.0140000  25.4340000 -21.4470000   5.5880000
  23.8010000 -21.8800000   6.9270000  24.5010000 -21.7990000   7.7610000
  23.7180000 -22.9420000   6.6870000  22.4280000 -21.3360000   7.3740000
  21.6370000 -21.8230000   6.8010000  22.3750000 -20.2660000   7.1620000
  22.2040000 -21.5410000   8.8840000  23.0090000 -21.0340000   9.4200000
  22.2850000 -22.6030000   9.1240000  20.8540000 -20.9890000   9.3860000
  20.0250000 -21.5270000   8.9210000  20.7660000 -19.9460000   9.0750000
  20.7420000 -21.0510000  10.9240000  20.3150000 -20.1110000  11.2790000
  21.7410000 -21.1210000  11.3610000  19.8700000 -22.2060000  11.4530000
  20.1850000 -23.1500000  11.0040000  18.8320000 -22.0340000  11.1590000
  19.9790000 -22.3180000  12.9850000  19.9250000 -21.3240000  13.4320000
  20.9640000 -22.7150000  13.2390000  18.9220000 -23.1950000  13.6230000
  17.8250000 -23.4180000  13.1370000  19.3400000 -23.6990000  14.7990000
  18.4170000 -24.4620000  15.6280000  17.6990000 -24.9950000  14.9990000
  17.8690000 -23.7760000  16.2790000  19.1660000 -25.5240000  16.4750000
  18.4070000 -26.0420000  17.0670000  20.2070000 -24.8890000  17.4330000
  19.7320000 -24.0920000  18.0110000  21.0210000 -24.4500000  16.8510000
  20.7270000 -25.8830000  18.3640000  22.3160000 -26.1670000  18.5260000
  22.4080000 -26.8550000  19.9860000  22.2090000 -26.0870000  21.1920000
  21.8700000 -26.7630000  21.9810000  21.4230000 -25.3460000  21.0220000
  23.5160000 -25.3830000  21.6350000  23.3070000 -24.8140000  22.5420000
  23.8270000 -24.6790000  20.8610000  24.7290000 -26.2270000  21.9450000
  25.3360000 -26.7940000  20.7050000  24.6110000 -27.4700000  20.2480000
  26.2450000 -27.3340000  20.9720000  25.5600000 -25.9720000  20.0250000
  25.7550000 -25.3590000  22.5950000  25.3370000 -24.9560000  23.5190000
  26.0100000 -24.5490000  21.9100000  26.6380000 -25.9630000  22.8130000
  24.3990000 -27.3410000  22.8830000  23.9540000 -26.9190000  23.7850000
  25.3190000 -27.8750000  23.1270000  23.6960000 -28.0120000  22.3880000
  22.7280000 -27.1940000  17.5270000  23.0520000 -24.8730000  18.5790000
  19.8240000 -26.4490000  15.5610000  19.8400000 -27.7640000  15.8590000
  19.2830000 -28.2670000  16.8230000  20.5740000 -28.5740000  14.8150000
  21.4680000 -28.0340000  14.4980000  20.8950000 -29.5150000  15.2680000
  19.6610000 -28.8570000  13.6070000  18.6890000 -29.1890000  13.9800000
  19.4910000 -27.9340000  13.0480000  20.2000000 -29.9510000  12.6660000
  20.3880000 -30.8540000  13.2500000  19.4160000 -30.1950000  11.9460000
  21.4820000 -29.5650000  11.8990000  21.2580000 -28.7580000  11.1980000
  22.2260000 -29.1820000  12.6000000  22.1080000 -30.7570000  11.1430000
  23.0130000 -30.4200000  10.6340000  22.4220000 -31.5020000  11.8780000
  21.1810000 -31.4520000  10.1230000  21.6660000 -32.3710000   9.7870000
  20.2590000 -31.7590000  10.6210000  20.8220000 -30.6030000   8.8860000
  19.9400000 -31.0490000   8.4220000  20.5360000 -29.5930000   9.1880000
  21.9390000 -30.5980000   7.8590000  22.0090000 -31.5040000   7.2630000
  22.8050000 -29.6150000   7.6330000  23.5570000 -29.7410000   6.8580000
  22.8450000 -28.2880000   8.3560000  21.8380000 -27.9690000   8.6320000
  23.4170000 -28.4060000   9.2790000  23.5180000 -27.1730000   7.5300000
  23.6430000 -26.3100000   8.1880000  24.5220000 -27.4810000   7.2310000
  22.7300000 -26.7050000   6.2900000  21.6660000 -26.6720000   6.5340000
  23.0400000 -25.6820000   6.0670000  22.9470000 -27.5560000   5.0250000
  24.0190000 -27.6700000   4.8530000  22.5300000 -28.5550000   5.1640000
  22.3190000 -26.9030000   3.7800000  22.7150000 -25.8910000   3.6810000
  22.6360000 -27.4650000   2.8990000  20.7780000 -26.8470000   3.8120000
  20.3830000 -27.8640000   3.7660000  20.4390000 -26.4140000   4.7550000
  20.1680000 -26.0200000   2.6660000  19.0800000 -26.0880000   2.7370000
  20.4350000 -24.9690000   2.7960000  20.6060000 -26.4770000   1.2650000
  20.0190000 -25.9650000   0.5000000  20.4670000 -27.5550000   1.1510000
  21.6590000 -26.2440000   1.0930000  20.2620000 -30.3450000  -1.1290000
  20.3670000 -30.1260000  -2.1930000  20.7210000 -29.5320000  -0.5630000
  19.1970000 -30.3830000  -0.8900000  20.9290000 -31.6870000  -0.7940000
  21.9780000 -31.6460000  -1.0970000  20.4530000 -32.4720000  -1.3840000
  20.8500000 -32.0650000   0.6980000  21.2710000 -33.0650000   0.8160000
  19.8040000 -32.1140000   1.0100000  21.6200000 -31.0910000   1.6140000
  21.0880000 -30.1400000   1.6840000  22.5920000 -30.8870000   1.1600000
  21.8690000 -31.6630000   3.0240000  22.5410000 -30.9910000   3.5620000
  22.3970000 -32.6130000   2.9200000  20.6070000 -31.8940000   3.8790000
  20.9020000 -32.4830000   4.7500000  19.8730000 -32.4870000   3.3280000
  19.9630000 -30.5890000   4.3800000  19.5210000 -30.0490000   3.5410000
  20.7460000 -29.9570000   4.8050000  18.8940000 -30.8310000   5.4630000
  19.3280000 -31.4420000   6.2570000  18.0590000 -31.3970000   5.0440000
  18.3840000 -29.5090000   6.0670000  17.9020000 -28.9110000   5.2900000
  19.2420000 -28.9390000   6.4310000  17.4000000 -29.7230000   7.2360000
  17.8430000 -30.4240000   7.9470000  16.4790000 -30.1750000   6.8630000
  17.0780000 -28.3960000   7.9520000  16.5720000 -27.7310000   7.2490000
  18.0140000 -27.9090000   8.2350000  16.2070000 -28.5420000   9.2160000
  15.2680000 -29.0370000   8.9600000  15.9570000 -27.5390000   9.5670000
  16.9110000 -29.3190000  10.3490000  17.8970000 -28.8840000  10.5240000
  17.0670000 -30.3520000  10.0320000  16.1320000 -29.3360000  11.6800000
  16.6510000 -30.0030000  12.3710000  15.1380000 -29.7570000  11.5160000
  16.0030000 -27.9430000  12.3340000  15.3880000 -27.2860000  11.7150000
  16.9900000 -27.4860000  12.4310000  15.3810000 -28.0440000  13.7040000
  14.2110000 -27.7840000  13.9320000  16.2790000 -28.4400000  14.6300000
  15.8220000 -28.7980000  15.9690000  14.9800000 -28.1710000  16.2720000
  16.6460000 -28.6180000  16.6640000  15.4330000 -30.2990000  16.0520000
  15.0320000 -30.4950000  17.0500000  16.6360000 -31.2320000  15.7720000
  17.1330000 -30.9040000  14.8560000  16.2790000 -32.2530000  15.6190000
  17.6090000 -31.2270000  16.8590000  17.3050000 -31.8930000  18.3050000
  16.5960000 -30.6880000  19.1070000  17.3610000 -29.5820000  19.6300000
  17.1980000 -28.6980000  19.0070000  18.4280000 -29.8150000  19.6060000
  16.9440000 -29.3210000  21.0980000  17.5530000 -28.5030000  21.4860000
  17.1540000 -30.2110000  21.6940000  15.5090000 -28.9460000  21.3910000
  14.5980000 -30.1240000  21.2660000  14.6430000 -30.4890000  20.2390000
  13.5820000 -29.8140000  21.5160000  14.9390000 -30.9000000  21.9530000
  15.4200000 -28.4540000  22.7980000  16.0570000 -27.5740000  22.9030000
  15.7580000 -29.2470000  23.4660000  14.3830000 -28.1950000  23.0160000
  15.0320000 -27.8570000  20.4830000  15.7090000 -27.0070000  20.5720000
  14.0220000 -27.5700000  20.7810000  15.0270000 -28.2380000  19.4600000
  16.2980000 -32.9770000  18.1340000  18.5990000 -32.2290000  18.9610000
  14.4370000 -30.5840000  15.0360000  13.3170000 -31.2620000  15.3470000
  12.9910000 -31.5960000  16.4740000  12.5050000 -31.5810000  14.1180000
  11.5870000 -32.0920000  14.4170000  12.2300000 -30.6460000  13.6260000
  13.3050000 -32.4620000  13.1390000  14.1530000 -31.8920000  12.7530000
  13.7030000 -33.3300000  13.6690000  12.4290000 -32.9510000  11.9740000
  11.6160000 -33.5510000  12.3880000  11.9740000 -32.0930000  11.4760000
  13.1900000 -33.8160000  10.9500000  13.6260000 -34.6740000  11.4650000
  12.4700000 -34.2180000  10.2340000  14.3070000 -33.0800000  10.1800000
  15.1060000 -32.8040000  10.8700000  14.7450000 -33.7800000   9.4650000
  13.8450000 -31.8170000   9.4210000  13.6030000 -31.0340000  10.1430000
  14.6810000 -31.4450000   8.8250000  12.6270000 -32.0280000   8.5000000
  11.7590000 -32.2890000   9.1090000  12.3810000 -31.0830000   8.0110000
  12.8510000 -33.1280000   7.4820000  12.7310000 -34.1370000   7.8670000
  13.1010000 -32.9570000   6.1890000  13.2010000 -33.8300000   5.5500000
  13.3480000 -31.6310000   5.5020000  12.4670000 -31.3540000   4.9200000
  13.5390000 -30.8340000   6.2240000  14.5490000 -31.7440000   4.5500000
  15.4280000 -32.0680000   5.1100000  14.3370000 -32.5050000   3.7960000
  14.8530000 -30.4070000   3.8580000  13.9450000 -30.0440000   3.3730000
  15.1440000 -29.6690000   4.6090000  15.9680000 -30.5420000   2.8080000
  16.8550000 -30.9830000   3.2680000  15.6370000 -31.2240000   2.0220000
  16.3410000 -29.1890000   2.1820000  15.4500000 -28.7430000   1.7360000
  16.6920000 -28.5090000   2.9610000  17.4370000 -29.3500000   1.1140000
  18.3500000 -29.7070000   1.5940000  17.1350000 -30.1100000   0.3900000
  17.7450000 -28.0420000   0.3680000  17.9310000 -27.2440000   1.0900000
  18.6590000 -28.1760000  -0.2140000  16.6200000 -27.6100000  -0.5780000
  16.9400000 -26.7550000  -1.1780000  15.7400000 -27.3100000  -0.0050000
  16.3450000 -28.4260000  -1.2500000  34.3460000  14.6270000  -0.9040000
  34.3380000  14.2510000  -1.9290000  33.4490000  14.2600000  -0.4000000
  35.2230000  14.2230000  -0.3940000  34.3870000  16.1660000  -0.9040000
  33.4890000  16.5500000  -1.3910000  35.2420000  16.4920000  -1.5000000
  34.5070000  16.7770000   0.5060000  34.6350000  17.8570000   0.4070000
  35.4040000  16.3860000   0.9920000  33.2790000  16.5060000   1.3950000
  33.1240000  15.4300000   1.4910000  32.3930000  16.9260000   0.9140000
  33.4260000  17.1060000   2.8050000  33.6900000  18.1630000   2.7290000
  34.2460000  16.6010000   3.3200000  32.1230000  16.9640000   3.6160000
  31.8480000  15.9090000   3.6720000  31.3190000  17.4700000   3.0770000
  32.1940000  17.5480000   5.0410000  31.2290000  17.3830000   5.5250000
  32.3320000  18.6290000   4.9770000  33.3030000  16.9600000   5.9390000
  33.1650000  17.3480000   6.9500000  34.2770000  17.3140000   5.5950000
  33.3140000  15.4190000   5.9830000  33.6580000  15.0300000   5.0230000
  32.2970000  15.0540000   6.1400000  34.2130000  14.8740000   7.1060000
  33.7740000  15.1490000   8.0670000  35.1960000  15.3460000   7.0500000
  34.3880000  13.3430000   7.0210000  34.9690000  13.1070000   6.1270000
  33.4130000  12.8630000   6.9100000  35.0950000  12.7480000   8.2520000
  35.9660000  13.3570000   8.5000000  35.4580000  11.7480000   8.0050000
  34.1600000  12.6510000   9.4720000  33.3530000  11.9480000   9.2540000
  33.7020000  13.6230000   9.6650000  34.9090000  12.2000000  10.7370000
  35.6970000  12.9240000  10.9530000  35.3840000  11.2340000  10.5550000
  33.9670000  12.0890000  11.9490000  33.3400000  11.1990000  11.8690000
  33.2990000  12.9530000  11.9620000  34.7150000  12.0560000  13.2630000
  35.8170000  11.5610000  13.4350000  34.0050000  12.6740000  14.2270000
  34.5740000  12.8270000  15.5560000  35.0500000  11.8970000  15.8780000
  33.7450000  13.0420000  16.2350000  35.5890000  14.0040000  15.5970000
  36.4860000  13.7270000  15.0370000  36.0470000  14.3460000  17.0370000
  36.3590000  15.3930000  17.0710000  36.9050000  13.7220000  17.2980000
  34.9990000  14.1210000  18.0240000  35.1570000  14.6320000  19.5500000
  34.4310000  16.0750000  19.5250000  33.1200000  16.2790000  20.1010000
  32.9560000  17.3530000  20.2210000  33.0920000  15.8290000  21.0970000
  32.0060000  15.6680000  19.2160000  31.0740000  15.6720000  19.7830000
  32.2560000  14.6310000  18.9900000  31.6810000  16.3310000  17.9010000
  32.8260000  16.2700000  16.9490000  33.6660000  16.8130000  17.3860000
  32.5270000  16.7240000  16.0030000  33.1050000  15.2260000  16.8000000
  30.5260000  15.6140000  17.2830000  29.6690000  15.6900000  17.9540000
  30.8010000  14.5690000  17.1360000  30.2940000  16.0840000  16.3260000
  31.2920000  17.7590000  18.0970000  30.4670000  17.8020000  18.8100000
  30.9820000  18.1710000  17.1360000  32.1570000  18.3050000  18.4770000
  34.3860000  13.7030000  20.4220000  36.6000000  14.8460000  19.8500000
  34.9910000  15.2050000  15.0260000  35.2380000  15.5070000  13.7340000
  35.9470000  14.8500000  12.9930000  34.5420000  16.7720000  13.2960000
  34.0120000  17.2090000  14.1450000  35.3010000  17.4890000  12.9760000
  33.5530000  16.5100000  12.1420000  34.0860000  16.0670000  11.2990000
  32.8000000  15.7920000  12.4710000  32.8690000  17.8120000  11.6780000
  32.3030000  18.2400000  12.5080000  33.6390000  18.5390000  11.4110000
  31.9320000  17.6230000  10.4680000  31.5890000  18.6060000  10.1410000
  32.4990000  17.1860000   9.6430000  30.7030000  16.7440000  10.7820000
  31.0250000  15.7250000  11.0060000  30.2170000  17.1290000  11.6810000
  29.6590000  16.7140000   9.6450000  28.8040000  16.1210000   9.9770000
  29.2940000  17.7290000   9.4760000  30.1600000  16.1400000   8.3050000
  29.3740000  16.2550000   7.5560000  31.0090000  16.7350000   7.9630000
  30.5860000  14.6910000   8.4450000  31.3340000  14.5100000   9.2140000
  30.1590000  13.6640000   7.7180000  30.5670000  12.6770000   7.9210000
  29.1300000  13.6970000   6.6020000  28.4900000  12.8160000   6.6750000
  28.4750000  14.5660000   6.6930000  29.7860000  13.7100000   5.2080000
  29.0050000  13.6300000   4.4490000  30.2750000  14.6750000   5.0630000
  30.8200000  12.5830000   4.9960000  31.5980000  12.6600000   5.7580000
  30.3420000  11.6080000   5.1140000  31.4780000  12.6730000   3.6100000
  30.7530000  12.3570000   2.8570000  31.7360000  13.7150000   3.4060000
  32.7550000  11.8270000   3.4810000  33.4570000  12.1250000   4.2630000
  32.5130000  10.7730000   3.6360000  33.4080000  12.0150000   2.0970000
  32.6990000  11.7080000   1.3260000  33.6130000  13.0750000   1.9370000
  34.7160000  11.2230000   1.9070000  34.5270000  10.1580000   2.0590000
  35.0470000  11.3450000   0.8730000  35.8500000  11.6830000   2.8420000
  36.7660000  11.1310000   2.6240000  35.5890000  11.5100000   3.8880000
  36.0490000  12.7480000   2.7030000  25.1360000  21.5950000   2.0330000
  24.7160000  20.6690000   1.6370000  25.6770000  22.1000000   1.2300000
  24.3140000  22.2390000   2.3560000  26.0790000  21.2930000   3.2090000
  26.8570000  20.6070000   2.8660000  25.5170000  20.7900000   3.9980000
  26.7260000  22.5730000   3.7730000  25.9360000  23.2670000   4.0670000
  27.3030000  23.0620000   2.9850000  27.6390000  22.3280000   4.9900000
  27.0440000  21.8790000   5.7890000  27.9900000  23.2950000   5.3550000
  28.8620000  21.4350000   4.6870000  29.3770000  21.8250000   3.8070000
  28.5350000  20.4220000   4.4440000  29.8700000  21.3760000   5.8520000
  30.2010000  22.3950000   6.0650000  30.7490000  20.8140000   5.5310000
  29.3020000  20.7290000   7.1330000  29.0400000  19.6910000   6.9170000
  28.3820000  21.2370000   7.4270000  30.2730000  20.7600000   8.3310000
  31.1910000  20.2280000   8.0750000  29.8030000  20.2200000   9.1560000
  30.6150000  22.1970000   8.7830000  29.6890000  22.7620000   8.9070000
  31.1890000  22.6930000   7.9980000  31.4210000  22.2900000  10.0910000
  31.6630000  23.3420000  10.2600000  32.3650000  21.7560000   9.9620000
  30.6820000  21.7290000  11.3240000  30.5830000  20.6470000  11.2150000
  29.6700000  22.1360000  11.3600000  31.3930000  22.0160000  12.6630000
  32.4060000  21.6120000  12.6250000  30.8700000  21.4700000  13.4510000
  31.4600000  23.5060000  13.0690000  32.0530000  24.0640000  12.3410000
  31.9820000  23.5750000  14.0250000  30.0720000  24.1630000  13.2130000
  29.4540000  23.5530000  13.8750000  29.5780000  24.1940000  12.2390000
  30.1470000  25.5940000  13.7790000  30.7360000  26.2320000  13.1170000
  30.6430000  25.5780000  14.7520000  28.7610000  26.1820000  13.9300000
  28.0570000  26.4810000  12.9790000  28.4210000  26.3710000  15.2230000
  27.0220000  26.6280000  15.5550000  26.5470000  27.2470000  14.7900000
  27.0020000  27.1870000  16.4940000  26.2170000  25.3110000  15.7610000
  25.2110000  25.5840000  16.0900000  26.8760000  24.4140000  16.8500000
  26.1140000  23.7870000  17.3200000  27.2930000  25.0610000  17.6260000
  27.9200000  23.5550000  16.3050000  29.0680000  22.9050000  17.2420000
  30.2480000  24.0120000  17.2090000  30.2960000  25.1100000  18.1410000
  29.2860000  25.4830000  18.3270000  30.8770000  25.9200000  17.6930000
  30.9540000  24.6600000  19.4700000  30.3500000  23.8690000  19.9170000
  30.9640000  25.5050000  20.1600000  32.3680000  24.1330000  19.4300000
  33.2890000  25.0840000  18.7390000  32.9760000  25.1780000  17.6990000
  34.2960000  24.6670000  18.7890000  33.2490000  26.0460000  19.2510000
  32.8530000  23.9470000  20.8270000  32.2050000  23.2270000  21.3290000
  32.8280000  24.9090000  21.3420000  33.8760000  23.5700000  20.7790000
  32.4410000  22.8070000  18.7560000  31.7360000  22.1300000  19.2400000
  33.4630000  22.4360000  18.8480000  32.1780000  22.9410000  17.7060000
  28.5490000  22.7820000  18.6360000  29.5780000  21.6740000  16.5750000
  26.1110000  24.6150000  14.4820000  25.3350000  23.5190000  14.3930000
  24.7020000  23.0320000  15.3160000  25.2760000  22.9710000  12.9870000
  24.3660000  22.3750000  12.8900000  25.2050000  23.8050000  12.2860000
  26.4940000  22.0870000  12.6540000  27.4050000  22.6880000  12.6220000
  26.6150000  21.3630000  13.4620000  26.3200000  21.3040000  11.3340000
  26.8990000  20.3820000  11.4150000  25.2750000  21.0060000  11.2220000
  26.7930000  22.0060000  10.0470000  27.8840000  22.0440000  10.0590000
  26.5120000  21.3810000   9.1970000  26.2630000  23.4330000   9.8150000
  25.1730000  23.4440000   9.8740000  26.6540000  24.0890000  10.5950000
  26.7080000  23.9550000   8.4360000  27.7730000  23.7560000   8.3010000
  26.1900000  23.3820000   7.6630000  26.4380000  25.4540000   8.1970000
  26.7370000  25.7100000   7.1790000  25.3600000  25.6190000   8.2410000
  27.1120000  26.3860000   9.1930000  26.4250000  26.8810000   9.8740000
  28.3970000  26.7320000   9.2340000  28.7170000  27.4640000   9.9700000
  29.5280000  26.0830000   8.4630000  30.4760000  26.3240000   8.9500000
  29.4320000  24.9960000   8.5150000  29.6000000  26.5230000   6.9900000
  28.6170000  26.4130000   6.5270000  29.8750000  27.5780000   6.9260000
  30.6120000  25.6650000   6.2110000  31.6290000  25.9440000   6.4940000
  30.4740000  24.6170000   6.4870000  30.4330000  25.7890000   4.6890000
  29.3960000  25.5550000   4.4390000  30.6220000  26.8180000   4.3740000
  31.3720000  24.8340000   3.9340000  32.4060000  25.0610000   4.2020000
  31.1750000  23.8090000   4.2550000  31.2260000  24.9190000   2.4050000
  31.4190000  25.9440000   2.0820000  31.9920000  24.2870000   1.9520000
  29.8410000  24.4710000   1.8970000  29.6210000  23.4730000   2.2800000
  29.0710000  25.1470000   2.2740000  29.7620000  24.4410000   0.3640000
  28.7640000  24.1300000   0.0450000  30.4880000  23.7350000  -0.0440000
  29.9660000  25.4310000  -0.0480000  21.7540000  26.1260000  -1.3820000
  21.6830000  26.2690000  -2.4620000  21.6760000  25.0580000  -1.1700000
  22.7340000  26.4770000  -1.0500000  20.6360000  26.9000000  -0.6660000
  19.6700000  26.5660000  -1.0520000  20.7290000  27.9640000  -0.8930000
  20.6760000  26.6930000   0.8590000  21.6360000  27.0430000   1.2430000
  20.6040000  25.6260000   1.0800000  19.5300000  27.4320000   1.5740000
  18.5910000  27.2110000   1.0610000  19.6940000  28.5090000   1.4960000
  19.3770000  27.0430000   3.0580000  19.1610000  25.9750000   3.1290000
  18.5140000  27.5720000   3.4670000  20.6180000  27.3700000   3.9090000
  20.8350000  28.4370000   3.8270000  21.4840000  26.8280000   3.5250000
  20.4200000  27.0030000   5.3910000  20.2500000  25.9280000   5.4800000
  19.5320000  27.5100000   5.7750000  21.6390000  27.4060000   6.2390000
  21.7800000  28.4860000   6.1590000  22.5350000  26.9300000   5.8350000
  21.4930000  27.0250000   7.7250000  21.4550000  25.9370000   7.8210000
  20.5530000  27.4250000   8.1120000  22.6620000  27.5830000   8.5570000
  22.6790000  28.6690000   8.4480000  23.6030000  27.2030000   8.1550000
  22.5730000  27.2320000  10.0550000  22.6590000  26.1510000  10.1840000
  21.5960000  27.5390000  10.4350000  23.6850000  27.9440000  10.8500000
  23.5730000  29.0230000  10.7210000  24.6540000  27.6770000  10.4230000
  23.7140000  27.6290000  12.3580000  24.4740000  28.2610000  12.8210000
  24.0250000  26.5930000  12.5070000  22.3650000  27.8560000  13.0670000
  21.6890000  27.0370000  12.8140000  21.9030000  28.7790000  12.7100000
  22.5320000  27.9400000  14.5970000  23.1000000  28.8330000  14.8650000
  23.1030000  27.0780000  14.9480000  21.2130000  27.9550000  15.3370000
  20.1120000  28.0040000  14.8080000  21.4080000  27.8660000  16.6670000
  20.3900000  27.2180000  17.4850000  19.3920000  27.5120000  17.1490000
  20.5140000  27.5590000  18.5160000  20.5310000  25.6640000  17.4580000
  19.6350000  25.2510000  17.9300000  21.7770000  25.1340000  18.2250000
  21.9140000  24.0670000  18.0330000  21.5840000  25.2550000  19.2940000
  23.0070000  25.8350000  17.8840000  23.9500000  26.4600000  19.0360000
  23.0560000  27.6700000  19.6100000  23.2710000  29.0240000  19.1730000
  23.2200000  29.0690000  18.0820000  24.2650000  29.3470000  19.4900000
  22.1900000  29.9420000  19.7890000  21.2280000  29.7530000  19.3110000
  22.4610000  30.9800000  19.5890000  21.9470000  29.8530000  21.2780000
  20.9750000  28.7590000  21.5760000  20.0410000  28.9820000  21.0580000
  20.8140000  28.7160000  22.6540000  21.3990000  27.8210000  21.2150000
  23.2050000  29.6150000  22.0490000  23.9100000  30.4140000  21.8170000
  23.6070000  28.6470000  21.7480000  22.9650000  29.6100000  23.1140000
  21.3540000  31.1290000  21.7620000  22.0560000  31.9370000  21.5530000
  21.1640000  31.0490000  22.8330000  20.4240000  31.2990000  21.2160000
  24.1120000  25.4540000  20.1230000  25.1710000  27.0170000  18.3930000
  20.5710000  25.2200000  16.0740000  20.2480000  23.9560000  15.7560000
  19.9260000  23.0990000  16.5620000  20.3170000  23.7190000  14.2680000
  20.0060000  22.6930000  14.0580000  19.6210000  24.3970000  13.7710000
  21.7420000  23.9530000  13.7310000  22.0590000  24.9720000  13.9660000
  22.4250000  23.2750000  14.2460000  21.8710000  23.7370000  12.2140000
  21.1680000  24.3920000  11.6950000  22.8750000  24.0370000  11.9040000
  21.6270000  22.2720000  11.8000000  22.1700000  21.6070000  12.4750000
  20.5650000  22.0380000  11.9030000  22.0730000  21.9680000  10.3580000
  23.1590000  22.0630000  10.2900000  21.8260000  20.9290000  10.1310000
  21.4110000  22.8910000   9.3170000  20.3370000  22.9320000   9.5110000
  21.7980000  23.9070000   9.4230000  21.6190000  22.4220000   7.8660000
  21.2340000  21.4040000   7.7800000  21.0150000  23.0520000   7.2110000
  23.0790000  22.4310000   7.4480000  23.7690000  21.9810000   8.1560000
  23.5450000  22.9050000   6.2960000  24.6100000  22.8440000   6.0850000
  22.7120000  23.5750000   5.2230000  22.0680000  24.3330000   5.6740000
  23.3700000  24.0960000   4.5240000  21.8530000  22.5550000   4.4520000
  22.5050000  21.8290000   3.9620000  21.2320000  22.0030000   5.1600000
  20.9380000  23.2140000   3.4040000  20.4470000  24.0830000   3.8480000
  21.5420000  23.5660000   2.5650000  19.8560000  22.2330000   2.9150000
  20.3290000  21.3410000   2.5010000  19.2620000  21.9160000   3.7750000
  18.9080000  22.8290000   1.8630000  18.0230000  22.1910000   1.8110000
  18.5760000  23.8180000   2.1850000  19.5450000  22.9150000   0.4630000
  20.4560000  23.5170000   0.5090000  19.8410000  21.9150000   0.1400000
  18.5970000  23.5230000  -0.5860000  18.3110000  24.5310000  -0.2800000
  19.1310000  23.6140000  -1.5340000  17.3300000  22.6770000  -0.8020000
  16.7510000  23.0690000  -1.6410000  16.6950000  22.6900000   0.0860000
  17.5880000  21.6370000  -1.0120000   6.2990000 -34.1380000   1.8700000
   5.2310000 -33.9690000   2.0270000   6.4560000 -35.2000000   1.6720000
   6.6120000 -33.5710000   0.9910000   7.0980000 -33.6910000   3.1050000
   6.7070000 -34.2040000   3.9860000   6.9550000 -32.6190000   3.2540000
   8.5990000 -33.9960000   2.9460000   8.9420000 -33.5600000   2.0050000
   8.7430000 -35.0760000   2.8710000   9.4870000 -33.4340000   4.0720000
   9.4760000 -32.3430000   4.0130000  10.5180000 -33.7460000   3.8880000
   9.0890000 -33.8530000   5.5000000   8.1230000 -33.4120000   5.7530000
   9.8220000 -33.4240000   6.1870000   9.0100000 -35.3780000   5.7130000
   9.9140000 -35.8540000   5.3280000   8.1670000 -35.7750000   5.1430000
   8.8250000 -35.7570000   7.1950000   8.5110000 -36.8010000   7.2540000
   8.0250000 -35.1510000   7.6270000  10.1210000 -35.5860000   8.0120000
  10.4870000 -34.5600000   7.9290000  10.8870000 -36.2350000   7.5820000
   9.9650000 -35.9360000   9.5030000  10.9620000 -36.0910000   9.9220000
   9.4230000 -36.8780000   9.6050000   9.2610000 -34.8320000  10.3160000
   8.2470000 -34.6840000   9.9390000   9.8040000 -33.8930000  10.1860000
   9.2150000 -35.1870000  11.8140000  10.2130000 -35.4940000  12.1330000
   8.5560000 -36.0450000  11.9630000   8.7610000 -34.0280000  12.7210000
   9.4370000 -33.1790000  12.5950000   8.8540000 -34.3640000  13.7560000
   7.3180000 -33.5570000  12.4610000   6.6380000 -34.4050000  12.5670000
   7.2290000 -33.2050000  11.4310000   6.8620000 -32.4240000  13.4050000
   5.8190000 -32.1870000  13.1870000   7.4420000 -31.5270000  13.1790000
   7.0080000 -32.7330000  14.9140000   6.6330000 -31.8870000  15.4950000
   8.0640000 -32.8390000  15.1690000   6.2660000 -33.9740000  15.3570000
   5.1970000 -34.3350000  14.8950000   6.9250000 -34.6250000  16.3400000
   6.3650000 -35.8650000  16.8730000   5.2750000 -35.8700000  16.7910000
   6.6140000 -35.9150000  17.9360000   6.9720000 -37.1140000  16.1760000
   6.4710000 -38.0130000  16.5450000   8.4750000 -37.2620000  16.4910000
   8.9870000 -36.3070000  16.3510000   8.9070000 -38.0020000  15.8120000
   8.6270000 -37.7270000  17.8610000  10.0580000 -38.1360000  18.4930000
  10.5880000 -36.7510000  19.1140000  11.3850000 -35.8390000  18.3350000
  10.9150000 -35.6600000  17.3650000  12.3670000 -36.2890000  18.1680000
  11.5490000 -34.5130000  19.1150000  12.2490000 -33.8770000  18.5700000
  11.9800000 -34.7270000  20.0940000  10.3260000 -33.6610000  19.3650000
   9.3990000 -34.2980000  20.3480000   9.0590000 -35.2490000  19.9370000
   8.5520000 -33.6320000  20.5180000   9.9430000 -34.4680000  21.2790000
  10.7740000 -32.3560000  19.9350000  11.4300000 -31.8680000  19.2130000
  11.3100000 -32.5480000  20.8660000   9.8960000 -31.7370000  20.1270000
   9.5800000 -33.3840000  18.0980000  10.2730000 -32.9530000  17.3740000
   8.7760000 -32.6790000  18.3160000   9.1600000 -34.3180000  17.7240000
   9.8100000 -39.0800000  19.6160000  10.9740000 -38.5580000  17.3980000
   6.8250000 -37.0480000  14.7300000   5.6540000 -37.4230000  14.1790000
   4.6700000 -37.7450000  14.8220000   5.7310000 -37.4170000  12.6710000
   5.9670000 -36.4010000  12.3470000   6.5720000 -38.0480000  12.3740000
   4.4460000 -37.9130000  11.9710000   4.2290000 -38.9280000  12.3090000
   3.5960000 -37.2870000  12.2500000   4.6060000 -37.9220000  10.4370000
   5.5590000 -38.3950000  10.1920000   3.8170000 -38.5340000   9.9950000
   4.5500000 -36.5120000   9.8130000   3.5060000 -36.1990000   9.7390000
   5.0420000 -35.7980000  10.4770000   5.2220000 -36.3870000   8.4300000
   5.1150000 -35.3480000   8.1080000   6.2940000 -36.5700000   8.5310000
   4.6490000 -37.2890000   7.3180000   3.5800000 -37.4370000   7.4800000
   4.7590000 -36.7620000   6.3680000   5.3580000 -38.6520000   7.1870000
   6.4350000 -38.4950000   7.0940000   5.2060000 -39.2370000   8.0960000
   4.8200000 -39.4350000   6.0070000   3.9140000 -40.0000000   6.2130000
   5.3510000 -39.4920000   4.7880000   4.8620000 -40.1020000   4.0330000
   6.5990000 -38.7730000   4.3060000   7.1350000 -38.3020000   5.1320000
   7.2760000 -39.5060000   3.8640000   6.2880000 -37.6990000   3.2460000
   5.6270000 -36.9520000   3.6900000   7.2130000 -37.1780000   2.9890000
   5.6330000 -38.2440000   1.9580000   4.7330000 -38.8020000   2.2230000
   5.3060000 -37.3970000   1.3510000   6.5340000 -39.1480000   1.0920000
   6.9130000 -39.9830000   1.6850000   5.9150000 -39.5800000   0.3040000
   7.7150000 -38.3840000   0.4560000   7.3440000 -37.4720000  -0.0160000
   8.4050000 -38.0790000   1.2450000   8.4980000 -39.2050000  -0.5880000
   9.3960000 -38.6460000  -0.8610000   8.8240000 -40.1460000  -0.1410000
   7.6970000 -39.5080000  -1.8690000   6.8130000 -40.1000000  -1.6210000
   7.3470000 -38.5700000  -2.3060000   8.5200000 -40.2670000  -2.9210000
   7.9240000 -40.4270000  -3.8220000   8.8340000 -41.2380000  -2.5340000
   9.4080000 -39.6960000  -3.2000000  37.4440000  -5.3800000   3.8520000
  37.8020000  -5.1860000   2.8380000  36.8440000  -6.2920000   3.8320000
  38.3110000  -5.5480000   4.4930000  36.6010000  -4.1930000   4.3520000
  35.7810000  -4.0310000   3.6490000  37.2070000  -3.2840000   4.3490000
  36.0080000  -4.4190000   5.7570000  35.4670000  -5.3670000   5.7620000
  35.2740000  -3.6350000   5.9550000  37.0580000  -4.4230000   6.8870000
  37.4780000  -3.4200000   6.9850000  37.8800000  -5.0910000   6.6210000
  36.4920000  -4.8880000   8.2450000  37.3100000  -4.9530000   8.9660000
  36.0980000  -5.8990000   8.1270000  35.4010000  -3.9700000   8.8250000
  34.5930000  -3.8460000   8.1010000  35.8290000  -2.9820000   9.0070000
  34.8010000  -4.5050000  10.1400000  34.1370000  -3.7400000  10.5480000
  35.5970000  -4.6630000  10.8700000  34.0000000  -5.8110000   9.9540000
  34.6750000  -6.6350000   9.7130000  33.3140000  -5.6920000   9.1120000
  33.1880000  -6.1610000  11.2140000  32.5950000  -5.2890000  11.4950000
  33.8710000  -6.3570000  12.0440000  32.2450000  -7.3670000  11.0170000
  32.8250000  -8.2930000  11.0190000  31.7680000  -7.2890000  10.0380000
  31.1370000  -7.4410000  12.0880000  30.4720000  -8.2790000  11.8680000
  30.5350000  -6.5330000  12.0130000  31.6410000  -7.5620000  13.5380000
  30.8310000  -7.2570000  14.2040000  32.4610000  -6.8620000  13.7100000
  32.0720000  -8.9850000  13.9450000  32.7460000  -9.4130000  13.2010000
  31.1860000  -9.6230000  13.9870000  32.7550000  -8.9570000  15.3270000
  32.1840000  -8.2920000  15.9780000  33.7540000  -8.5260000  15.2340000
  32.8350000 -10.3240000  16.0320000  31.8390000 -10.7660000  16.0900000
  33.1770000 -10.1650000  17.0570000  33.7690000 -11.3120000  15.3750000
  33.3690000 -12.3350000  14.8440000  35.0720000 -10.9960000  15.5000000
  36.0270000 -12.0910000  15.4080000  35.9360000 -12.5570000  14.4230000
  35.7620000 -12.8340000  16.1640000  37.5160000 -11.6920000  15.6310000
  38.0580000 -12.6410000  15.6420000  37.8390000 -10.9660000  16.9710000
  38.9020000 -10.7100000  16.9750000  37.6610000 -11.6430000  17.8100000
  37.0780000  -9.7410000  17.1700000  36.0000000  -9.6010000  18.3650000
  36.9340000  -9.2570000  19.6230000  37.6440000  -8.0060000  19.6960000
  37.2660000  -7.2960000  18.9560000  38.6950000  -8.2020000  19.4690000
  37.5010000  -7.4290000  21.1250000  38.1980000  -6.5970000  21.2430000
  37.7790000  -8.2030000  21.8420000  36.1510000  -6.9010000  21.5620000
  35.6430000  -5.8630000  20.6170000  36.3920000  -5.0750000  20.5210000
  34.7130000  -5.4530000  21.0140000  35.4580000  -6.3410000  19.6540000
  35.1390000  -7.9920000  21.6680000  35.5260000  -8.7610000  22.3390000
  34.9870000  -8.4060000  20.6700000  34.2090000  -7.5720000  22.0510000
  36.2900000  -6.2720000  22.9100000  36.6460000  -7.0280000  23.6120000
  35.3160000  -5.8950000  23.2250000  37.0040000  -5.4490000  22.8470000
  35.1190000  -8.4250000  18.1320000  35.3820000 -10.9240000  18.6440000
  38.0010000 -10.8880000  14.5170000  39.2200000 -11.1400000  13.9960000
  39.9480000 -12.0480000  14.3660000  39.5820000 -10.1730000  12.8930000
  39.3290000 -10.6190000  11.9290000  38.9650000  -9.2800000  13.0110000
  41.0690000  -9.7670000  12.9380000  41.3650000  -9.6480000  13.9820000
  41.6880000 -10.5710000  12.5330000  41.3920000  -8.4440000  12.2110000
  40.7280000  -7.6540000  12.5670000  42.4030000  -8.1560000  12.5090000
  41.3530000  -8.4830000  10.6690000  42.0280000  -7.7050000  10.3070000
  41.7470000  -9.4390000  10.3150000  39.9670000  -8.2130000  10.0500000
  39.2670000  -8.9880000  10.3710000  39.5860000  -7.2610000  10.4240000
  40.0300000  -8.1670000   8.5050000  40.7700000  -7.4220000   8.2030000
  40.3840000  -9.1290000   8.1300000  38.6810000  -7.8210000   7.8370000
  38.3400000  -6.8690000   8.2490000  38.8290000  -7.6900000   6.7630000
  37.6490000  -8.8930000   8.1050000  37.8580000  -9.5010000   8.9820000
  36.5940000  -9.2080000   7.3610000  35.9720000 -10.0440000   7.6690000
  36.0820000  -8.4830000   6.1370000  36.7030000  -7.6200000   5.8920000
  36.1020000  -9.1630000   5.2830000  34.6290000  -8.0290000   6.3820000
  34.0530000  -8.8480000   6.8180000  34.6370000  -7.2260000   7.1220000
  33.9190000  -7.5260000   5.1120000  33.2630000  -6.6960000   5.3810000
  34.6550000  -7.1410000   4.4020000  33.0660000  -8.6220000   4.4500000
  33.6750000  -9.5100000   4.2700000  32.2640000  -8.9050000   5.1360000
  32.4550000  -8.1540000   3.1180000  32.0360000  -7.1530000   3.2420000
  33.2470000  -8.0930000   2.3700000  31.3400000  -9.0970000   2.6350000
  31.7110000 -10.1240000   2.6040000  30.5270000  -9.0650000   3.3630000
  30.7800000  -8.7110000   1.2550000  29.8440000  -9.2520000   1.0980000
  30.5390000  -7.6460000   1.2390000  31.7420000  -9.0380000   0.1010000
  31.2870000  -8.7680000  -0.8540000  31.9690000 -10.1060000   0.0850000
  32.6800000  -8.4880000   0.2040000  34.0700000 -11.8830000   1.7890000
  34.5710000 -10.9270000   1.6260000  33.6660000 -11.8850000   2.8040000
  33.2410000 -11.9610000   1.0830000  35.0640000 -13.0420000   1.5880000
  35.8710000 -12.9460000   2.3170000  35.5140000 -12.9540000   0.5970000
  34.4270000 -14.4400000   1.7140000  35.1870000 -15.1940000   1.4950000
  33.6390000 -14.5470000   0.9660000  33.8440000 -14.7100000   3.1110000
  33.0390000 -13.9980000   3.3040000  34.6170000 -14.5450000   3.8650000
  33.2860000 -16.1370000   3.2620000  34.0910000 -16.8660000   3.1470000
  32.5500000 -16.3220000   2.4770000  32.6180000 -16.3080000   4.6350000
  31.8730000 -15.5150000   4.7320000  33.3610000 -16.1590000   5.4220000
  31.9400000 -17.6800000   4.8250000  32.6910000 -18.4670000   4.7270000
  31.2070000 -17.8310000   4.0300000  31.2370000 -17.8240000   6.1920000
  31.9810000 -17.7680000   6.9890000  30.7670000 -18.8080000   6.2510000
  30.1670000 -16.7390000   6.4170000  29.4380000 -16.7800000   5.6050000
  30.6390000 -15.7550000   6.3830000  29.4330000 -16.8450000   7.7610000
  30.1560000 -16.8730000   8.5790000  28.8540000 -17.7710000   7.7860000
  28.4960000 -15.6340000   7.9140000  27.7810000 -15.6630000   7.0900000
  29.0760000 -14.7150000   7.7990000  27.7110000 -15.5550000   9.2340000
  27.0990000 -16.4510000   9.3540000  27.0310000 -14.7040000   9.1700000
  28.6180000 -15.3780000  10.4650000  29.3810000 -14.6270000  10.2510000
  29.1310000 -16.3200000  10.6700000  27.8190000 -14.9290000  11.7020000
  26.9460000 -15.5710000  11.8400000  27.4440000 -13.9190000  11.5230000
  28.6650000 -14.9230000  12.9910000  28.1680000 -14.3020000  13.7400000
  29.6400000 -14.4700000  12.8030000  28.8590000 -16.3040000  13.5800000
  28.4890000 -17.3420000  13.0560000  29.4740000 -16.2530000  14.7770000
  29.7050000 -17.5220000  15.4500000  30.1510000 -18.2160000  14.7330000
  28.7450000 -17.9310000  15.7740000  30.6630000 -17.4190000  16.6680000
  30.9790000 -18.4310000  16.9330000  29.9830000 -16.8430000  17.9330000
  30.6710000 -16.9860000  18.7700000  29.0630000 -17.3900000  18.1540000
  29.6810000 -15.4270000  17.8100000  29.7270000 -14.4700000  19.1050000
  31.2870000 -14.4960000  19.5070000  32.2700000 -13.7710000  18.7430000
  31.9850000 -13.7740000  17.6880000  33.2300000 -14.2840000  18.8370000
  32.3950000 -12.3220000  19.2690000  31.4400000 -11.8090000  19.1470000
  33.1450000 -11.8010000  18.6720000  32.8110000 -12.1090000  20.7040000
  31.7510000 -12.5330000  21.6650000  30.8280000 -12.0060000  21.4170000
  32.0760000 -12.2890000  22.6780000  31.6060000 -13.6090000  21.5620000
  34.0760000 -12.8370000  21.0150000  34.8380000 -12.5030000  20.3090000
  33.8960000 -13.9080000  20.9110000  34.3750000 -12.5980000  22.0370000
  33.0530000 -10.6550000  20.9150000  33.8480000 -10.3510000  20.2310000
  33.3580000 -10.4990000  21.9510000  32.1320000 -10.1120000  20.6960000
  29.3520000 -13.0870000  18.7000000  28.9580000 -15.1220000  20.2000000
  31.8360000 -16.6230000  16.3250000  32.8490000 -17.2070000  15.6610000
  32.9550000 -18.4120000  15.5070000  33.8550000 -16.2020000  15.1510000
  33.6380000 -15.2160000  15.5680000  34.8440000 -16.4950000  15.5080000
  33.8680000 -16.1230000  13.6100000  34.7080000 -15.4940000  13.3070000
  34.0480000 -17.1210000  13.2040000  32.5670000 -15.5670000  12.9960000
  31.7240000 -16.1580000  13.3600000  32.4090000 -14.5400000  13.3320000
  32.5540000 -15.6130000  11.4540000  32.7460000 -16.6370000  11.1240000
  31.5520000 -15.3470000  11.1120000  33.5800000 -14.6650000  10.8010000
  33.3410000 -13.6370000  11.0800000  34.5760000 -14.8810000  11.1920000
  33.6420000 -14.7860000   9.2630000  34.4410000 -14.1410000   8.8910000
  33.9170000 -15.8110000   9.0070000  32.3390000 -14.4340000   8.5190000
  32.4800000 -14.6300000   7.4540000  31.5470000 -15.1060000   8.8560000
  31.9050000 -13.0000000   8.7580000  31.5820000 -12.7830000   9.7730000
  31.8350000 -12.0430000   7.8370000  31.4740000 -11.0580000   8.1230000
  32.2760000 -12.1650000   6.3910000  32.6590000 -11.2020000   6.0480000
  33.1020000 -12.8740000   6.3040000  31.1290000 -12.6140000   5.4640000
  31.5410000 -12.7620000   4.4640000  30.7570000 -13.5830000   5.8050000
  29.9500000 -11.6200000   5.3980000  29.5940000 -11.4520000   6.4160000
  30.2950000 -10.6540000   5.0220000  28.7470000 -12.1130000   4.5620000
  28.6110000 -13.1850000   4.7190000  27.8550000 -11.6240000   4.9600000
  28.7860000 -11.8180000   3.0470000  27.7890000 -12.0160000   2.6490000
  28.9810000 -10.7560000   2.8870000  29.7960000 -12.6620000   2.2450000
  30.8160000 -12.4020000   2.5360000  29.6420000 -13.7180000   2.4780000
  29.6550000 -12.4500000   0.7260000  28.6110000 -12.5760000   0.4300000
  29.9400000 -11.4280000   0.4720000  30.5240000 -13.4320000  -0.0760000
  30.4090000 -13.2490000  -1.1470000  30.2260000 -14.4620000   0.1320000
  31.5780000 -13.3150000   0.1840000  -4.2520000 -52.2860000   1.6370000
  -5.2760000 -52.6550000   1.7200000  -4.2280000 -51.2550000   1.9980000
  -3.6110000 -52.8970000   2.2760000  -3.7800000 -52.3520000   0.1780000
  -4.4280000 -51.7210000  -0.4330000  -3.8870000 -53.3790000  -0.1790000
  -2.3170000 -51.9150000  -0.0170000  -1.6580000 -52.6080000   0.5090000
  -2.1630000 -50.9250000   0.4190000  -1.9410000 -51.8870000  -1.5080000
  -2.5830000 -51.1620000  -2.0140000  -2.1430000 -52.8660000  -1.9480000
  -0.4610000 -51.5340000  -1.7440000   0.1640000 -52.2750000  -1.2410000
  -0.2400000 -50.5650000  -1.2920000  -0.0850000 -51.5000000  -3.2390000
  -0.3190000 -52.4650000  -3.6930000   0.9940000 -51.3580000  -3.3250000
  -0.7980000 -50.3800000  -4.0210000  -0.5970000 -49.4210000  -3.5380000
  -1.8780000 -50.5380000  -3.9930000  -0.3470000 -50.3080000  -5.4900000
  -0.5280000 -51.2690000  -5.9760000   0.7260000 -50.1120000  -5.5300000
  -1.0990000 -49.2010000  -6.2490000  -0.9650000 -48.2550000  -5.7190000
  -2.1660000 -49.4330000  -6.2430000  -0.6050000 -49.0340000  -7.6980000
  -0.7170000 -49.9780000  -8.2370000   0.4610000 -48.7980000  -7.6790000
  -1.3420000 -47.9170000  -8.4610000  -0.8010000 -47.7220000  -9.3890000
  -1.3030000 -46.9990000  -7.8700000  -2.8140000 -48.2570000  -8.7810000
  -3.3460000 -48.4470000  -7.8460000  -2.8640000 -49.1800000  -9.3620000
  -3.5620000 -47.1310000  -9.5250000  -3.5390000 -46.2390000  -8.8950000
  -4.6130000 -47.4100000  -9.6180000  -3.0270000 -46.7400000 -10.9220000
  -1.9520000 -46.5520000 -10.8930000  -3.4910000 -45.7840000 -11.1760000
  -3.3800000 -47.7280000 -12.0590000  -3.4080000 -47.1720000 -12.9990000
  -4.3830000 -48.1330000 -11.9090000  -2.4090000 -48.8730000 -12.2550000
  -1.4450000 -49.1140000 -11.5530000  -2.7210000 -49.5950000 -13.3490000
  -1.7960000 -50.6430000 -13.7550000  -1.7260000 -51.3960000 -12.9660000
  -0.8050000 -50.2090000 -13.9070000  -2.2640000 -51.3020000 -15.0790000
  -1.4810000 -51.9770000 -15.4330000  -2.5230000 -50.2470000 -16.1750000
  -2.0370000 -49.3040000 -15.9120000  -3.5970000 -50.0680000 -16.2770000
  -1.9700000 -50.7130000 -17.4330000  -2.1700000 -49.8860000 -18.8060000
  -3.4150000 -50.6210000 -19.5050000  -3.2840000 -51.9300000 -20.0930000
  -2.2520000 -52.1000000 -20.4100000  -3.9200000 -51.9810000 -20.9800000
  -3.7090000 -53.0100000 -19.0690000  -3.0940000 -52.9180000 -18.1730000
  -3.5210000 -53.9900000 -19.5110000  -5.1490000 -53.0350000 -18.6070000
  -6.0980000 -53.0000000 -19.7590000  -5.9860000 -52.0410000 -20.2670000
  -7.1150000 -53.1000000 -19.3770000  -5.8620000 -53.8230000 -20.4350000
  -5.3820000 -54.3050000 -17.8560000  -4.6720000 -54.3590000 -17.0300000
  -5.2320000 -55.1450000 -18.5360000  -6.4070000 -54.3070000 -17.4800000
  -5.4560000 -51.8930000 -17.6950000  -4.7770000 -51.9290000 -16.8420000
  -6.4930000 -51.9760000 -17.3660000  -5.3110000 -50.9670000 -18.2520000
  -2.6010000 -48.5030000 -18.4810000  -0.9470000 -50.0730000 -19.6330000
  -3.4900000 -52.0590000 -14.8750000  -3.3880000 -53.2710000 -14.2980000
  -2.3280000 -53.7840000 -13.9920000  -4.7350000 -53.9200000 -14.0850000
  -5.5180000 -53.1650000 -14.1810000  -4.8940000 -54.6550000 -14.8780000
  -4.8590000 -54.6140000 -12.7130000  -5.8230000 -55.1260000 -12.6730000
  -4.0880000 -55.3810000 -12.6130000  -4.7690000 -53.6340000 -11.5270000
  -3.7810000 -53.1700000 -11.5000000  -5.5040000 -52.8370000 -11.6640000
  -5.0420000 -54.3480000 -10.1930000  -6.0280000 -54.8140000 -10.2490000
  -4.3100000 -55.1450000 -10.0450000  -5.0100000 -53.3920000  -8.9870000
  -4.0060000 -52.9790000  -8.8720000  -5.6920000 -52.5590000  -9.1720000
  -5.4350000 -54.1130000  -7.6950000  -6.4000000 -54.5940000  -7.8640000
  -4.7170000 -54.9030000  -7.4620000  -5.5850000 -53.1780000  -6.4840000
  -6.2860000 -52.3790000  -6.7330000  -6.0390000 -53.7470000  -5.6700000
  -4.2660000 -52.5720000  -6.0450000  -3.9650000 -51.6780000  -6.5850000
  -3.5260000 -52.9980000  -5.0260000  -2.6170000 -52.4630000  -4.7670000
  -3.7860000 -54.2540000  -4.2200000  -4.1500000 -55.0510000  -4.8730000
  -2.8450000 -54.6020000  -3.7900000  -4.8050000 -54.0140000  -3.0920000
  -4.4590000 -53.1970000  -2.4550000  -5.7550000 -53.6980000  -3.5280000
  -5.0210000 -55.2790000  -2.2390000  -5.2640000 -56.1200000  -2.8920000
  -4.0850000 -55.5230000  -1.7330000  -6.1300000 -55.1300000  -1.1790000
  -6.1010000 -56.0010000  -0.5230000  -5.9280000 -54.2540000  -0.5590000
  -7.5410000 -55.0130000  -1.7840000  -7.5960000 -54.1400000  -2.4380000
  -7.7460000 -55.8950000  -2.3940000  -8.6170000 -54.8890000  -0.6930000
  -8.5880000 -55.7780000  -0.0580000  -8.3970000 -54.0280000  -0.0580000
 -10.0280000 -54.7390000  -1.2840000 -10.0690000 -53.8510000  -1.9190000
 -10.2530000 -55.6030000  -1.9120000 -11.0940000 -54.6210000  -0.1860000
 -10.9250000 -53.7290000   0.4220000 -11.0660000 -55.4970000   0.4650000
 -12.0880000 -54.5560000  -0.6340000  20.4680000   0.8280000  -2.1930000
  21.3710000   0.8450000  -1.5800000  20.0250000   1.8260000  -2.1760000
  20.7570000   0.5890000  -3.2180000  19.4710000  -0.2050000  -1.6420000
  19.2240000   0.0660000  -0.6140000  19.9470000  -1.1870000  -1.6120000
  18.1600000  -0.2930000  -2.4450000  17.6970000   0.6950000  -2.5030000
  17.4660000  -0.9450000  -1.9110000  18.3690000  -0.8560000  -3.8590000
  18.8960000  -1.8090000  -3.7850000  19.0000000  -0.1750000  -4.4350000
  17.0410000  -1.0690000  -4.6030000  16.5390000  -0.1100000  -4.7410000
  16.3840000  -1.6950000  -3.9950000  17.2770000  -1.7310000  -5.9730000
  17.8830000  -2.6310000  -5.8480000  17.8520000  -1.0460000  -6.5980000
  15.9720000  -2.1020000  -6.7000000  16.2090000  -2.3050000  -7.7470000
  15.2920000  -1.2470000  -6.6820000  15.2740000  -3.3420000  -6.1070000
  15.0130000  -3.1720000  -5.0600000  15.9750000  -4.1790000  -6.1280000
  14.0140000  -3.7310000  -6.9020000  13.7420000  -4.7600000  -6.6590000
  14.2530000  -3.7060000  -7.9670000  12.8010000  -2.8230000  -6.6190000
  13.1000000  -1.7730000  -6.6120000  12.4300000  -3.0490000  -5.6170000
  11.6460000  -3.0320000  -7.6190000  10.7730000  -2.4830000  -7.2610000
  11.3810000  -4.0910000  -7.6200000  11.9470000  -2.5900000  -9.0680000
  11.0520000  -2.7510000  -9.6730000  12.7330000  -3.2220000  -9.4880000
  12.3630000  -1.1090000  -9.1640000  13.3070000  -0.9660000  -8.6340000
  11.6140000  -0.4970000  -8.6570000  12.5320000  -0.5870000 -10.6020000
  12.7930000   0.4720000 -10.5450000  11.5780000  -0.6560000 -11.1290000
  13.6220000  -1.3330000 -11.4050000  13.3010000  -2.3530000 -11.6260000
  14.5340000  -1.4020000 -10.8080000  13.9640000  -0.6400000 -12.7050000
  13.3100000   0.2610000 -13.2020000  15.1000000  -1.1220000 -13.2460000
  15.6290000  -0.4550000 -14.4300000  15.6030000   0.6280000 -14.2840000
  15.0050000  -0.6950000 -15.2950000  17.0960000  -0.8950000 -14.6900000
  17.5470000  -0.1900000 -15.3940000  17.1640000  -2.3210000 -15.2850000
  16.1550000  -2.7310000 -15.3800000  17.7350000  -2.9620000 -14.6090000
  17.8290000  -2.3250000 -16.5830000  17.1200000  -1.7970000 -17.9360000
  16.3800000  -3.1020000 -18.4980000  15.1300000  -3.5660000 -17.9680000
  14.4750000  -3.8150000 -18.8070000  14.6500000  -2.7800000 -17.3790000
  15.3720000  -4.8130000 -17.0870000  14.4060000  -5.1620000 -16.7210000
  15.9820000  -4.5420000 -16.2240000  16.0530000  -6.0090000 -17.7090000
  15.5000000  -6.3320000 -19.0550000  14.4200000  -6.4610000 -18.9700000
  15.9790000  -7.2500000 -19.3990000  15.7450000  -5.5050000 -19.7230000
  17.5220000  -5.7970000 -17.8420000  17.9460000  -5.5570000 -16.8660000
  17.7000000  -4.9720000 -18.5330000  17.9640000  -6.7100000 -18.2450000
  15.8340000  -7.1860000 -16.8220000  16.2250000  -6.9520000 -15.8310000
  16.3750000  -8.0300000 -17.2540000  14.7660000  -7.4030000 -16.7740000
  16.1090000  -0.7810000 -17.5660000  18.1600000  -1.4380000 -18.9270000
  17.8740000  -0.8870000 -13.4610000  18.0820000   0.2850000 -12.8350000
  17.7480000   1.3700000 -13.2730000  18.7870000   0.0990000 -11.5190000
  19.4860000  -0.7350000 -11.6130000  19.3720000   0.9970000 -11.3100000
  17.8020000  -0.1730000 -10.3670000  17.1290000  -0.9860000 -10.6480000
  18.3710000  -0.5120000  -9.4990000  16.9810000   1.0660000  -9.9570000
  17.6640000   1.8730000  -9.6820000  16.3830000   1.4130000 -10.8020000
  16.0520000   0.7600000  -8.7680000  15.3190000   0.0090000  -9.0680000
  16.6460000   0.3380000  -7.9550000  15.3260000   2.0100000  -8.2430000
  16.0730000   2.7190000  -7.8780000  14.7900000   2.4890000  -9.0650000
  14.3320000   1.6980000  -7.1080000  13.5000000   1.1180000  -7.5120000
  14.8230000   1.0860000  -6.3490000  13.7920000   2.9800000  -6.4450000
  14.5990000   3.4850000  -5.9090000  13.4500000   3.6700000  -7.2190000
  12.6340000   2.6850000  -5.5150000  11.6530000   2.8510000  -5.9510000
  12.7130000   2.3030000  -4.2440000  11.7940000   2.1590000  -3.6830000
  13.9840000   2.0000000  -3.4760000  14.8680000   2.2480000  -4.0680000
  14.0180000   2.6140000  -2.5730000  14.0580000   0.5130000  -3.0740000
  14.0520000  -0.0880000  -3.9860000  15.0100000   0.3300000  -2.5720000
  12.9080000   0.0660000  -2.1440000  12.9380000   0.6710000  -1.2350000
  11.9480000   0.2660000  -2.6250000  12.9540000  -1.4260000  -1.7530000
  13.9050000  -1.6500000  -1.2650000  12.1610000  -1.6120000  -1.0250000
  12.7630000  -2.3520000  -2.9690000  11.8550000  -2.0580000  -3.4990000
  13.5980000  -2.2060000  -3.6580000  12.6750000  -3.8560000  -2.6390000
  12.6130000  -4.4070000  -3.5800000  13.5910000  -4.1760000  -2.1390000
  11.4560000  -4.2190000  -1.7700000  11.6060000  -3.8360000  -0.7580000
  10.5630000  -3.7390000  -2.1760000  11.2120000  -5.7350000  -1.7030000
  10.3850000  -5.9540000  -1.0240000  12.1010000  -6.2570000  -1.3420000
  10.9610000  -6.1250000  -2.6910000 -40.4470000  32.8340000   1.1800000
 -41.4520000  32.4660000   1.3980000 -39.7370000  32.0230000   1.3560000
 -40.4050000  33.1090000   0.1240000 -40.1200000  34.0400000   2.0750000
 -40.2040000  33.7260000   3.1180000 -40.8630000  34.8250000   1.9190000
 -38.7060000  34.6090000   1.8550000 -37.9750000  33.8200000   2.0420000
 -38.5280000  35.3880000   2.5990000 -38.4530000  35.1980000   0.4520000
 -38.5750000  34.4130000  -0.2970000 -37.4130000  35.5280000   0.4010000
 -39.3730000  36.3880000   0.1110000 -39.3860000  37.0820000   0.9540000
 -40.3940000  36.0270000  -0.0270000 -38.9360000  37.1610000  -1.1480000
 -37.9240000  37.5410000  -0.9890000 -39.5880000  38.0280000  -1.2740000
 -38.9660000  36.3210000  -2.4390000 -39.9940000  36.0240000  -2.6610000
 -38.3860000  35.4080000  -2.2920000 -38.3750000  37.0810000  -3.6400000
 -37.3700000  37.4200000  -3.3780000 -38.9780000  37.9660000  -3.8540000
 -38.2930000  36.2010000  -4.8980000 -39.2970000  36.0070000  -5.2810000
 -37.8640000  35.2380000  -4.6120000 -37.4180000  36.8410000  -5.9940000
 -36.4140000  36.9950000  -5.5930000 -37.8140000  37.8270000  -6.2460000
 -37.3070000  36.0040000  -7.2850000 -36.5140000  36.4320000  -7.9010000
 -38.2360000  36.0920000  -7.8530000 -37.0190000  34.5090000  -7.0340000
 -37.9410000  34.0280000  -6.7020000 -36.2880000  34.4020000  -6.2300000
 -36.4920000  33.7760000  -8.2800000 -36.9380000  34.2110000  -9.1770000
 -36.8020000  32.7300000  -8.2390000 -34.9540000  33.8260000  -8.3620000
 -34.5420000  33.2240000  -7.5500000 -34.6040000  34.8490000  -8.2130000
 -34.4170000  33.2930000  -9.7020000 -34.8980000  32.3440000  -9.9470000
 -33.3430000  33.1100000  -9.6220000 -34.6470000  34.2910000 -10.8090000
 -33.9590000  35.2840000 -10.9600000 -35.6900000  33.9720000 -11.5990000
 -35.9820000  34.8540000 -12.7210000 -35.1960000  34.7500000 -13.4730000
 -36.0110000  35.8910000 -12.3740000 -37.3550000  34.4990000 -13.3360000
 -37.3340000  33.4470000 -13.6300000 -37.6360000  35.3950000 -14.5680000
 -36.9300000  35.1590000 -15.3690000 -37.5070000  36.4420000 -14.2820000
 -38.9940000  35.2050000 -15.0550000 -39.5950000  36.1120000 -16.2470000
 -38.8720000  35.5120000 -17.5490000 -39.2960000  34.2570000 -18.1100000
 -40.3510000  34.3120000 -18.3910000 -39.1770000  33.4740000 -17.3570000
 -38.4210000  33.9270000 -19.3430000 -38.7240000  32.9520000 -19.7270000
 -37.3760000  33.8610000 -19.0360000 -38.4600000  34.8690000 -20.5260000
 -37.7430000  36.1460000 -20.2340000 -38.2550000  36.6450000 -19.4100000
 -37.7610000  36.7720000 -21.1270000 -36.7170000  35.9110000 -19.9500000
 -37.7730000  34.2180000 -21.6800000 -38.3030000  33.2980000 -21.9310000
 -36.7430000  33.9970000 -21.3950000 -37.7900000  34.9050000 -22.5280000
 -39.8630000  35.1790000 -20.9350000 -40.3810000  34.2430000 -21.1460000
 -39.8350000  35.8070000 -21.8260000 -40.3500000  35.7110000 -20.1160000
 -41.0580000  35.8540000 -16.3470000 -39.1320000  37.5160000 -16.0690000
 -38.3790000  34.7520000 -12.3340000 -39.4220000  33.9040000 -12.2430000
 -39.5360000  32.8550000 -12.8570000 -40.4590000  34.4080000 -11.2670000
 -40.4800000  35.4990000 -11.3060000 -41.4430000  34.0500000 -11.5750000
 -40.1650000  33.9550000  -9.8250000 -39.1660000  34.2880000  -9.5340000
 -40.8770000  34.4480000  -9.1600000 -40.2830000  32.4310000  -9.6390000
 -41.2600000  32.1060000 -10.0020000 -39.5240000  31.9230000 -10.2370000
 -40.1300000  32.0170000  -8.1670000 -39.1080000  32.2080000  -7.8330000
 -40.7980000  32.6350000  -7.5630000 -40.4750000  30.5310000  -7.9570000
 -41.4970000  30.3550000  -8.3020000 -39.8230000  29.9150000  -8.5790000
 -40.3540000  30.0580000  -6.4970000 -40.7470000  29.0410000  -6.4260000
 -39.2960000  30.0160000  -6.2320000 -41.0870000  30.9660000  -5.4900000
 -40.5560000  31.9160000  -5.4000000 -42.0850000  31.1960000  -5.8700000
 -41.2250000  30.3230000  -4.1280000 -42.1880000  29.8560000  -3.9370000
 -40.3230000  30.3710000  -3.1540000 -40.5530000  29.9150000  -2.1950000
 -38.9180000  30.9140000  -3.2850000 -38.2190000  30.1650000  -2.9070000
 -38.6640000  31.0950000  -4.3310000 -38.7050000  32.2000000  -2.4750000
 -39.2690000  33.0150000  -2.9340000 -39.0910000  32.0600000  -1.4630000
 -37.2160000  32.5830000  -2.3850000 -37.1380000  33.5410000  -1.8680000
 -36.6970000  31.8490000  -1.7640000 -36.5060000  32.6560000  -3.7540000
 -36.4110000  31.6490000  -4.1630000 -37.1140000  33.2300000  -4.4570000
 -35.1000000  33.2730000  -3.6560000 -34.5570000  32.7620000  -2.8580000
 -34.5600000  33.0780000  -4.5850000 -35.1210000  34.7970000  -3.4140000
 -35.3270000  35.3020000  -4.3600000 -35.9300000  35.0670000  -2.7320000
 -33.8090000  35.3490000  -2.8350000 -32.9760000  35.0990000  -3.4950000
 -33.8790000  36.4380000  -2.8010000 -33.5270000  34.8270000  -1.4160000
 -32.7640000  35.4400000  -0.9310000 -33.1760000  33.7930000  -1.4420000
 -34.4350000  34.8650000  -0.8110000 -50.5760000   8.7420000   1.8820000
 -50.7610000   9.3350000   2.7810000 -49.5320000   8.8710000   1.5890000
 -50.7470000   7.6910000   2.1230000 -51.5110000   9.2000000   0.7530000
 -51.3570000  10.2660000   0.5790000 -52.5470000   9.0670000   1.0720000
 -51.2780000   8.4300000  -0.5600000 -51.4570000   7.3650000  -0.3960000
 -50.2370000   8.5470000  -0.8680000 -52.2040000   8.9420000  -1.6770000
 -52.0420000  10.0130000  -1.8130000 -53.2430000   8.8060000  -1.3700000
 -51.9770000   8.2250000  -3.0210000 -52.1790000   7.1580000  -2.9030000
 -50.9320000   8.3370000  -3.3170000 -52.8930000   8.8050000  -4.1140000
 -52.6510000   9.8610000  -4.2500000 -53.9290000   8.7500000  -3.7720000
 -52.7920000   8.0910000  -5.4740000 -53.5400000   8.5210000  -6.1430000
 -53.0410000   7.0350000  -5.3510000 -51.4070000   8.2160000  -6.1350000
 -50.6570000   7.7020000  -5.5300000 -51.1350000   9.2720000  -6.1800000
 -51.4180000   7.6170000  -7.5550000 -52.1790000   8.1300000  -8.1470000
 -51.7120000   6.5670000  -7.4960000 -50.0700000   7.7150000  -8.2940000
 -50.2010000   7.2990000  -9.2950000 -49.3310000   7.0960000  -7.7800000
 -49.5380000   9.1590000  -8.3880000 -49.2100000   9.4730000  -7.3950000
 -50.3490000   9.8300000  -8.6790000 -48.3630000   9.3370000  -9.3690000
 -47.5820000   8.6080000  -9.1400000 -47.9280000  10.3270000  -9.2140000
 -48.7830000   9.2070000 -10.8470000 -49.5640000   9.9390000 -11.0630000
 -49.2050000   8.2160000 -11.0250000 -47.6050000   9.4430000 -11.8100000
 -46.8770000   8.6360000 -11.7030000 -47.1020000  10.3680000 -11.5180000
 -48.0260000   9.5690000 -13.2910000 -47.1540000   9.8190000 -13.8990000
 -48.7320000  10.3950000 -13.3940000 -48.6600000   8.3190000 -13.8660000
 -48.5710000   7.2050000 -13.3750000 -49.3160000   8.5850000 -15.0160000
 -50.2110000   7.5700000 -15.5700000 -49.8280000   6.5670000 -15.3650000
 -50.2330000   7.6950000 -16.6550000 -51.6700000   7.7000000 -15.0330000
 -52.1450000   6.7280000 -15.1870000 -52.5080000   8.7680000 -15.7910000
 -53.4830000   8.8690000 -15.3070000 -52.6710000   8.4230000 -16.8150000
 -51.8560000  10.0690000 -15.8290000 -52.5730000  11.3740000 -16.4640000
 -52.2880000  11.2320000 -18.0440000 -53.2160000  10.5630000 -18.9190000
 -54.1740000  11.0870000 -18.8840000 -53.3720000   9.5320000 -18.5900000
 -52.6720000  10.6010000 -20.3670000 -52.5220000  11.6400000 -20.6640000
 -53.4230000  10.1670000 -21.0280000 -51.3810000   9.8800000 -20.6780000
 -50.2030000  10.5710000 -20.0730000 -50.1790000  11.5990000 -20.4390000
 -49.2950000  10.0400000 -20.3630000 -50.3190000  10.5640000 -18.9880000
 -51.4140000   8.4640000 -20.2020000 -52.2850000   7.9690000 -20.6330000
 -51.4730000   8.4650000 -19.1120000 -50.4990000   7.9670000 -20.5280000
 -51.1890000   9.8690000 -22.1580000 -52.0260000   9.3390000 -22.6150000
 -50.2520000   9.3600000 -22.3860000 -51.1550000  10.9000000 -22.5130000
 -54.0430000  11.2840000 -16.2300000 -51.8530000  12.5860000 -15.9840000
 -51.6520000   7.9910000 -13.6030000 -52.7190000   7.6620000 -12.8530000
 -53.7170000   7.1150000 -13.2880000 -52.5320000   8.0490000 -11.4030000
 -52.2820000   7.1460000 -10.8410000 -51.6730000   8.7180000 -11.3200000
 -53.7900000   8.7060000 -10.7930000 -54.6250000   8.0120000 -10.9100000
 -53.6490000   8.8350000  -9.7180000 -54.1940000  10.0620000 -11.4150000
 -53.9480000  10.0790000 -12.4790000 -55.2800000  10.1460000 -11.3480000
 -53.5970000  11.3060000 -10.7220000 -54.0440000  12.1960000 -11.1710000
 -53.8860000  11.2990000  -9.6690000 -52.0660000  11.4240000 -10.8190000
 -51.6120000  10.5730000 -10.3070000 -51.7620000  11.3870000 -11.8680000
 -51.5320000  12.7160000 -10.1740000 -51.9960000  13.5810000 -10.6530000
 -51.8160000  12.7310000  -9.1200000 -50.0010000  12.8320000 -10.2890000
 -49.5350000  11.9340000  -9.8780000 -49.7210000  12.8740000 -11.3430000
 -49.4860000  14.0690000  -9.5820000 -49.4760000  14.9710000 -10.1880000
 -49.0200000  14.1200000  -8.3370000 -48.6530000  15.0680000  -7.9510000
 -48.9780000  12.9730000  -7.3460000 -49.6320000  13.2210000  -6.5070000
 -49.3530000  12.0450000  -7.7810000 -47.5490000  12.7540000  -6.8110000
 -46.8740000  12.6000000  -7.6560000 -47.2150000  13.6590000  -6.3000000
 -47.4170000  11.5460000  -5.8580000 -47.5620000  10.6300000  -6.4330000
 -46.3950000  11.5130000  -5.4750000 -48.3990000  11.5380000  -4.6670000
 -49.4260000  11.5080000  -5.0360000 -48.2400000  10.6150000  -4.1050000
 -48.2260000  12.7430000  -3.7180000 -47.2230000  12.7140000  -3.2860000
 -48.2970000  13.6700000  -4.2900000 -49.2730000  12.8060000  -2.5860000
 -49.0430000  13.6610000  -1.9470000 -50.2510000  13.0000000  -3.0300000
 -49.3780000  11.5420000  -1.7080000 -50.1640000  11.7020000  -0.9660000
 -49.6900000  10.6930000  -2.3200000 -48.0760000  11.1870000  -0.9710000
 -48.2320000  10.3130000  -0.3350000 -47.7580000  12.0180000  -0.3390000
 -47.2780000  10.9570000  -1.6790000  12.1640000  50.9280000  -1.3230000
  12.5390000  50.8660000  -0.2990000  12.3730000  51.9290000  -1.7060000
  12.7060000  50.2010000  -1.9300000  10.6560000  50.6300000  -1.3520000
  10.1220000  51.3810000  -0.7660000  10.4820000  49.6650000  -0.8720000
  10.0800000  50.5780000  -2.7790000   9.0660000  50.1740000  -2.7300000
  10.6710000  49.8830000  -3.3800000  10.0370000  51.9520000  -3.4730000
  11.0430000  52.3730000  -3.5170000   9.4210000  52.6340000  -2.8840000
   9.4710000  51.8560000  -4.9020000   8.4610000  51.4440000  -4.8670000
  10.0860000  51.1680000  -5.4850000   9.4380000  53.2280000  -5.5980000
  10.4330000  53.6750000  -5.5640000   8.7620000  53.8890000  -5.0510000
   8.9760000  53.1330000  -7.0630000   7.9810000  52.6860000  -7.1020000
   9.6580000  52.4690000  -7.5990000   8.9440000  54.5160000  -7.7440000
   9.9260000  54.9840000  -7.6560000   8.2320000  55.1550000  -7.2160000
   8.5400000  54.4730000  -9.2300000   8.5020000  55.4960000  -9.6090000
   7.5350000  54.0570000  -9.3210000   9.5170000  53.6530000 -10.0920000
   9.4770000  52.6040000  -9.7900000  10.5330000  54.0110000  -9.9100000
   9.2020000  53.7470000 -11.5960000   9.3520000  54.7730000 -11.9370000
   8.1480000  53.5080000 -11.7540000  10.0660000  52.7910000 -12.4420000
   9.6950000  52.7980000 -13.4690000   9.9510000  51.7720000 -12.0640000
  11.5580000  53.1710000 -12.4480000  11.9380000  53.2130000 -11.4250000
  11.6630000  54.1700000 -12.8770000  12.4180000  52.1790000 -13.2500000
  11.9860000  52.0500000 -14.2450000  12.4090000  51.2060000 -12.7550000
  13.8680000  52.6900000 -13.3780000  14.2850000  52.8650000 -12.3840000
  13.8660000  53.6430000 -13.9120000  14.7690000  51.7350000 -14.1240000
  15.8550000  51.3730000 -13.6990000  14.2590000  51.3430000 -15.3080000
  15.1140000  50.5790000 -16.2070000  15.5540000  49.7440000 -15.6540000
  15.9220000  51.2240000 -16.5600000  14.3370000  50.0110000 -17.4300000
  14.9540000  49.2400000 -17.8980000  14.0380000  51.0750000 -18.5160000
  13.3940000  50.6280000 -19.2780000  14.9740000  51.3800000 -18.9920000
  13.3880000  52.2560000 -17.9710000  12.7280000  53.3810000 -18.9200000
  11.3100000  52.7350000 -19.3210000  10.3090000  52.4600000 -18.3180000
   9.3390000  52.8170000 -18.6730000  10.5520000  52.9910000 -17.3940000
  10.2670000  50.9360000 -18.0480000   9.6610000  50.7510000 -17.1600000
  11.2810000  50.5910000 -17.8420000   9.7080000  50.0330000 -19.1250000
   8.2780000  50.3640000 -19.4070000   7.7140000  50.2940000 -18.4750000
   7.8940000  49.6530000 -20.1400000   8.2270000  51.3760000 -19.8110000
  10.4830000  50.1150000 -20.3990000  11.5210000  49.8500000 -20.1940000
  10.4250000  51.1390000 -20.7710000  10.0460000  49.4250000 -21.1230000
   9.7720000  48.6190000 -18.6490000  10.8180000  48.3550000 -18.4860000
   9.3370000  47.9730000 -19.4130000   9.2070000  48.5370000 -17.7200000
  12.4810000  54.6090000 -18.1130000  13.5440000  53.5010000 -20.1610000
  13.0790000  49.4000000 -17.0210000  13.1070000  48.3020000 -16.2420000
  14.1160000  47.6710000 -15.9760000  11.7300000  47.9520000 -15.7330000
  11.0270000  48.7210000 -16.0600000  11.4140000  47.0050000 -16.1760000
  11.6940000  47.8640000 -14.1960000  12.2960000  47.0160000 -13.8660000
  12.1370000  48.7700000 -13.7780000  10.2520000  47.7120000 -13.6740000
   9.6810000  48.6070000 -13.9290000   9.7760000  46.8710000 -14.1830000
  10.1660000  47.4720000 -12.1550000   9.1170000  47.3410000 -11.8820000
  10.6810000  46.5400000 -11.9120000  10.7620000  48.6150000 -11.3110000
  11.8180000  48.7400000 -11.5610000  10.2500000  49.5490000 -11.5500000
  10.6300000  48.3310000  -9.8020000   9.5720000  48.2350000  -9.5490000
  11.1030000  47.3730000  -9.5760000  11.2570000  49.4190000  -8.9110000
  10.7460000  50.3680000  -9.0830000  11.0840000  49.1360000  -7.8700000
  12.7500000  49.5410000  -9.1450000  13.2490000  48.6200000  -9.4360000
  13.4610000  50.6600000  -9.0460000  14.5290000  50.6300000  -9.2490000
  12.9190000  52.0130000  -8.6350000  13.5960000  52.7970000  -8.9820000
  11.9580000  52.1980000  -9.1190000  12.7470000  52.1280000  -7.1070000
  12.3460000  53.1160000  -6.8730000  12.0060000  51.3950000  -6.7830000
  14.0470000  51.9090000  -6.3070000  14.4780000  50.9420000  -6.5770000
  14.7740000  52.6790000  -6.5730000  13.7890000  51.9400000  -4.7870000
  13.3100000  52.8860000  -4.5270000  13.0820000  51.1490000  -4.5280000
  15.0630000  51.7850000  -3.9320000  15.7140000  52.6460000  -4.1000000
  14.7770000  51.8070000  -2.8780000  15.8830000  50.5070000  -4.1980000
  16.2980000  50.5440000  -5.2070000  16.7290000  50.4920000  -3.5080000
  15.0760000  49.2070000  -4.0270000  14.5960000  49.1990000  -3.0460000
  14.2870000  49.1600000  -4.7800000  15.9650000  47.9610000  -4.1590000
  15.3610000  47.0570000  -4.0580000  16.7320000  47.9550000  -3.3820000
  16.4560000  47.9420000  -5.1340000 -21.5270000  -7.3250000   1.2000000
 -20.8710000  -7.0580000   2.0310000 -21.7680000  -8.3870000   1.2830000
 -22.4490000  -6.7470000   1.2880000 -20.8300000  -7.0330000  -0.1390000
 -19.9310000  -7.6490000  -0.2140000 -20.5010000  -5.9920000  -0.1470000
 -21.7280000  -7.2790000  -1.3650000 -21.1810000  -6.9900000  -2.2650000
 -22.5850000  -6.6050000  -1.3000000 -22.2420000  -8.7290000  -1.5140000
 -22.8580000  -8.7960000  -2.4130000 -22.8950000  -8.9620000  -0.6700000
 -21.1330000  -9.7980000  -1.5910000 -21.5930000 -10.7880000  -1.6130000
 -20.5230000  -9.7560000  -0.6860000 -20.2370000  -9.6400000  -2.8320000
 -19.8800000  -8.6100000  -2.9000000 -20.8350000  -9.8360000  -3.7240000
 -19.0150000 -10.5750000  -2.8020000 -19.3510000 -11.6120000  -2.8520000
 -18.4940000 -10.4570000  -1.8500000 -18.0140000 -10.2950000  -3.9400000
 -17.2120000 -11.0340000  -3.8830000 -17.5590000  -9.3140000  -3.7840000
 -18.6390000 -10.3350000  -5.3480000 -19.3860000  -9.5440000  -5.4430000
 -19.1420000 -11.2940000  -5.4860000 -17.5730000 -10.1460000  -6.4410000
 -16.8160000 -10.9250000  -6.3250000 -17.0790000  -9.1850000  -6.2840000
 -18.1060000 -10.1910000  -7.8860000 -17.2500000 -10.1660000  -8.5630000
 -18.7010000  -9.2990000  -8.0910000 -18.9450000 -11.4500000  -8.1770000
 -19.9180000 -11.3680000  -7.6880000 -18.4400000 -12.3140000  -7.7410000
 -19.1480000 -11.7230000  -9.6770000 -19.5640000 -12.7270000  -9.7810000
 -18.1760000 -11.7300000 -10.1740000 -20.0620000 -10.7290000 -10.4110000
 -19.5830000  -9.7480000 -10.4330000 -21.0110000 -10.6310000  -9.8780000
 -20.3250000 -11.2190000 -11.8510000 -20.9210000 -12.1340000 -11.8350000
 -19.3740000 -11.4620000 -12.3280000 -21.0300000 -10.2040000 -12.7170000
 -21.6080000  -9.2170000 -12.2990000 -20.9200000 -10.5150000 -14.0250000
 -21.2700000  -9.5110000 -15.0250000 -22.0600000  -8.8490000 -14.6620000
 -21.6510000 -10.0300000 -15.9080000 -20.0180000  -8.6860000 -15.4350000
 -20.3220000  -7.8700000 -16.0960000 -18.9950000  -9.5680000 -16.1860000
 -18.7740000 -10.4500000 -15.5800000 -18.0650000  -9.0190000 -16.3530000
 -19.5600000 -10.0020000 -17.4560000 -19.2080000  -9.2860000 -18.8670000
 -19.7830000  -7.7850000 -18.6940000 -18.9400000  -6.6860000 -18.2860000
 -18.2160000  -7.0320000 -17.5440000 -19.5650000  -5.9210000 -17.8200000
 -18.1970000  -6.0910000 -19.5060000 -17.5910000  -6.8730000 -19.9650000
 -17.5260000  -5.3080000 -19.1490000 -19.0000000  -5.4750000 -20.6260000
 -19.6970000  -6.5170000 -21.4330000 -18.9440000  -7.1960000 -21.8370000
 -20.2440000  -6.0290000 -22.2410000 -20.3820000  -7.0590000 -20.7790000
 -20.0060000  -4.4990000 -20.1080000 -19.4920000  -3.7460000 -19.5090000
 -20.7310000  -5.0410000 -19.4990000 -20.5080000  -4.0340000 -20.9580000
 -18.0720000  -4.7490000 -21.5420000 -17.5590000  -3.9640000 -20.9850000
 -18.6540000  -4.3150000 -22.3570000 -17.3560000  -5.4680000 -21.9430000
 -17.7320000  -9.2440000 -19.0230000 -20.0210000  -9.9520000 -19.9210000
 -19.3610000  -8.1380000 -14.2550000 -19.8840000  -7.0400000 -13.6680000
 -20.8110000  -6.4040000 -14.1380000 -19.1450000  -6.6950000 -12.3910000
 -19.1110000  -7.5780000 -11.7480000 -18.1120000  -6.4720000 -12.6630000
 -19.7260000  -5.4870000 -11.6170000 -18.9970000  -5.1840000 -10.8630000
 -19.8280000  -4.6440000 -12.3030000 -21.0790000  -5.7180000 -10.9050000
 -21.3860000  -4.7800000 -10.4370000 -21.8450000  -5.9710000 -11.6410000
 -21.0300000  -6.8130000  -9.8220000 -20.8600000  -7.7800000 -10.3020000
 -20.1800000  -6.6280000  -9.1620000 -22.3260000  -6.8850000  -8.9870000
 -22.3640000  -6.0390000  -8.2970000 -23.1840000  -6.7930000  -9.6570000
 -22.4670000  -8.2060000  -8.2020000 -23.4510000  -8.2430000  -7.7300000
 -22.4340000  -9.0320000  -8.9160000 -21.3900000  -8.4420000  -7.1270000
 -21.3260000  -9.5170000  -6.9480000 -20.4100000  -8.1290000  -7.4950000
 -21.7230000  -7.7680000  -5.8130000 -22.4840000  -8.2760000  -5.2250000
 -21.1080000  -6.7130000  -5.2900000 -21.4020000  -6.3770000  -4.2990000
 -20.0720000  -5.8390000  -5.9660000 -20.0680000  -5.9990000  -7.0460000
 -20.3380000  -4.7910000  -5.8090000 -18.6520000  -6.0720000  -5.4180000
 -18.3330000  -7.0850000  -5.6730000 -17.9690000  -5.3840000  -5.9210000
 -18.5360000  -5.8750000  -3.8940000 -18.9580000  -4.9080000  -3.6130000
 -19.1240000  -6.6460000  -3.3900000 -17.0750000  -5.9410000  -3.4180000
 -16.5700000  -6.7790000  -3.9030000 -16.5700000  -5.0280000  -3.7400000
 -16.9300000  -6.0810000  -1.8900000 -15.9170000  -5.7920000  -1.6010000
 -17.6180000  -5.3950000  -1.3920000 -17.1880000  -7.5200000  -1.4060000
 -18.1820000  -7.8390000  -1.7260000 -16.4620000  -8.1910000  -1.8710000
 -17.0930000  -7.6540000   0.1230000 -16.0990000  -7.3440000   0.4510000
 -17.8150000  -6.9830000   0.5940000 -17.3620000  -9.0940000   0.5910000
 -17.2950000  -9.1580000   1.6790000 -16.6310000  -9.7800000   0.1560000
 -18.3610000  -9.4150000   0.2910000  51.5080000   8.7050000  -0.4740000
  51.7030000   9.5630000   0.1730000  51.8660000   7.8040000   0.0270000
  50.4290000   8.6150000  -0.6140000  52.2110000   8.8910000  -1.8290000
  53.2840000   9.0170000  -1.6660000  51.8410000   9.8080000  -2.2910000
  51.9700000   7.6960000  -2.7700000  50.8990000   7.6140000  -2.9680000
  52.2710000   6.7750000  -2.2660000  52.7200000   7.7870000  -4.1130000
  52.3900000   6.9590000  -4.7430000  53.7910000   7.6560000  -3.9460000
  52.4860000   9.1180000  -4.8540000  53.0700000   9.9080000  -4.3780000
  51.4330000   9.3960000  -4.7700000  52.8540000   9.0340000  -6.3450000
  52.2640000   8.2400000  -6.8080000  53.9070000   8.7640000  -6.4540000
  52.5850000  10.3620000  -7.0770000  53.3210000  11.1020000  -6.7580000
  51.6060000  10.7470000  -6.7840000  52.6330000  10.1960000  -8.6080000
  51.9100000   9.4390000  -8.9180000  53.6200000   9.8260000  -8.8940000
  52.3490000  11.5030000  -9.3710000  52.5940000  11.3480000 -10.4240000
  53.0080000  12.2930000  -9.0030000  50.8840000  11.9690000  -9.2690000
  50.6260000  12.1750000  -8.2280000  50.2320000  11.1670000  -9.6210000
  50.6540000  13.2390000 -10.1090000  50.9620000  13.0430000 -11.1390000
  51.2980000  14.0350000  -9.7320000  49.2010000  13.7470000 -10.1210000
  49.1670000  14.6190000 -10.7790000  48.9220000  14.0830000  -9.1210000
  48.1780000  12.7060000 -10.6130000  48.0460000  11.9420000  -9.8430000
  48.5700000  12.2120000 -11.5040000  46.8100000  13.3270000 -10.9580000
  46.9140000  13.9750000 -11.8300000  46.4830000  13.9530000 -10.1250000
  45.7190000  12.2730000 -11.2310000  45.5960000  11.6490000 -10.3430000
  44.7660000  12.7730000 -11.4140000  46.0430000  11.3900000 -12.4150000
  46.6530000  10.3420000 -12.3160000  45.5490000  11.8890000 -13.5680000
  45.8650000  11.2370000 -14.8350000  45.0500000  11.4570000 -15.5300000
  45.9290000  10.1520000 -14.7140000  47.1830000  11.8030000 -15.4220000
  47.1290000  12.8940000 -15.3760000  47.3880000  11.3650000 -16.8950000
  48.2850000  11.8580000 -17.2800000  46.5400000  11.6830000 -17.5070000
  47.5460000   9.9250000 -17.0110000  48.6670000   9.3000000 -17.9880000
  50.0420000   9.6660000 -17.2450000  51.2860000   9.0810000 -17.6790000
  51.1220000   8.0320000 -17.9410000  52.0030000   9.1140000 -16.8540000
  51.8340000   9.8560000 -18.9000000  51.0530000   9.9110000 -19.6590000
  52.6770000   9.3040000 -19.3180000  52.3220000  11.2720000 -18.6990000
  53.4680000  11.3140000 -17.7400000  53.1220000  10.9800000 -16.7610000
  53.8320000  12.3400000 -17.6800000  54.2560000  10.6560000 -18.1090000
  52.7980000  11.7960000 -20.0120000  51.9600000  11.7890000 -20.7110000
  53.6010000  11.1540000 -20.3770000  53.1630000  12.8140000 -19.8710000
  51.2380000  12.1750000 -18.2140000  50.4070000  12.1170000 -18.9170000
  51.6250000  13.1930000 -18.1490000  50.9140000  11.8270000 -17.2310000
  48.5100000   7.8230000 -17.9940000  48.6180000  10.0340000 -19.2790000
  48.2870000  11.3360000 -14.6020000  49.4550000  11.9970000 -14.6070000
  49.6980000  12.9620000 -15.3120000  50.4270000  11.4300000 -13.6020000
  51.0650000  12.2350000 -13.2310000  49.8570000  11.0350000 -12.7580000
  51.2940000  10.3110000 -14.2050000  50.6500000   9.5400000 -14.6310000
  51.8820000  10.7280000 -15.0260000  52.2580000   9.6750000 -13.1800000
  52.8890000   8.9490000 -13.6970000  52.9210000  10.4510000 -12.7930000
  51.5710000   8.9720000 -11.9880000  52.3430000   8.6140000 -11.3040000
  50.9710000   9.6980000 -11.4350000  50.6930000   7.7780000 -12.4100000
  49.9280000   8.1140000 -13.1140000  51.3170000   7.0530000 -12.9350000
  49.9950000   7.0660000 -11.2340000  49.5040000   6.1700000 -11.6190000
  50.7420000   6.7360000 -10.5090000  48.9440000   7.9450000 -10.5270000
  49.4350000   8.7880000 -10.0350000  48.2790000   8.3740000 -11.2790000
  48.1270000   7.1380000  -9.5350000  47.2900000   6.5940000  -9.9660000
  48.3310000   7.0780000  -8.2230000  47.6680000   6.4800000  -7.6030000
  49.4710000   7.7500000  -7.4910000  49.9490000   7.0400000  -6.8130000
  50.2440000   8.0650000  -8.1960000  48.9890000   8.9800000  -6.7030000
  49.7850000   9.7270000  -6.7160000  48.1280000   9.4320000  -7.1990000
  48.6520000   8.6650000  -5.2350000  47.8050000   7.9780000  -5.1820000
  49.5060000   8.1620000  -4.7760000  48.3440000   9.9530000  -4.4500000
  49.1220000  10.6900000  -4.6600000  47.3970000  10.3720000  -4.7970000
  48.2860000   9.7280000  -2.9290000  47.4950000   9.0130000  -2.6970000
  49.2330000   9.2980000  -2.5960000  48.0410000  11.0500000  -2.1770000
  48.7510000  11.7990000  -2.5310000  47.0410000  11.4160000  -2.4220000
  48.1880000  10.9370000  -0.6470000  49.2250000  10.6990000  -0.4030000
  47.9680000  11.9080000  -0.1990000  47.2680000   9.8840000  -0.0110000
  47.3760000   9.9020000   1.0760000  47.5220000   8.8810000  -0.3610000
  46.2240000  10.0870000  -0.2560000   8.6550000 -20.2280000  -2.2820000
   9.5410000 -20.7740000  -1.9500000   8.2310000 -20.7580000  -3.1380000
   7.9220000 -20.2330000  -1.4720000   9.0350000 -18.7860000  -2.6580000
   9.7670000 -18.8100000  -3.4680000   9.5290000 -18.3220000  -1.8020000
   7.8360000 -17.9030000  -3.0690000   8.2100000 -16.9140000  -3.3430000
   7.1900000 -17.7620000  -2.2000000   6.9760000 -18.4540000  -4.2290000
   6.2190000 -17.7110000  -4.4880000   6.4360000 -19.3350000  -3.8770000
   7.7650000 -18.8410000  -5.4970000   7.0720000 -19.2610000  -6.2280000
   8.4590000 -19.6450000  -5.2430000   8.5660000 -17.6950000  -6.1530000
   9.1650000 -18.1190000  -6.9620000   9.2740000 -17.2860000  -5.4290000
   7.7200000 -16.5430000  -6.7330000   8.3990000 -15.8340000  -7.2110000
   7.2150000 -16.0090000  -5.9250000   6.6760000 -17.0120000  -7.7670000
   5.8540000 -17.5100000  -7.2490000   7.1360000 -17.7470000  -8.4320000
   6.1220000 -15.8530000  -8.6190000   6.9350000 -15.4300000  -9.2130000
   5.7470000 -15.0640000  -7.9650000   4.9890000 -16.3120000  -9.5580000
   4.1310000 -16.6040000  -8.9490000   5.3130000 -17.1960000 -10.1130000
   4.5800000 -15.2170000 -10.5630000   5.4380000 -14.9780000 -11.1950000
   4.3310000 -14.3050000 -10.0160000   3.3900000 -15.5990000 -11.4690000
   3.6930000 -16.4040000 -12.1420000   3.1410000 -14.7330000 -12.0880000
   2.1270000 -16.0290000 -10.6970000   1.9930000 -15.3620000  -9.8420000
   2.2730000 -17.0340000 -10.2970000   0.8230000 -15.9960000 -11.5210000
   0.6080000 -14.9660000 -11.8130000   0.0090000 -16.3050000 -10.8620000
   0.8040000 -16.9030000 -12.7720000  -0.2290000 -17.1200000 -13.0500000
   1.2820000 -17.8580000 -12.5480000   1.4550000 -16.2670000 -13.9750000
   1.1090000 -15.2050000 -14.4570000   2.4520000 -17.0210000 -14.4690000
   3.2030000 -16.5070000 -15.6020000   3.6380000 -15.5380000 -15.3440000
   2.5280000 -16.3710000 -16.4510000   4.3280000 -17.5020000 -15.9860000
   4.9730000 -17.0340000 -16.7340000   3.7430000 -18.8040000 -16.5950000
   3.4770000 -18.6440000 -17.6420000   2.8360000 -19.0680000 -16.0460000
   4.6530000 -19.9400000 -16.4860000   5.9670000 -20.1090000 -17.4110000
   5.3170000 -20.2980000 -18.8630000   4.5880000 -21.4940000 -19.1810000
   3.7880000 -21.6210000 -18.4470000   5.2510000 -22.3620000 -19.1340000
   3.9750000 -21.3290000 -20.5900000   3.4590000 -20.3690000 -20.6370000
   3.2410000 -22.1190000 -20.7530000   4.9070000 -21.3710000 -21.7790000
   4.1050000 -21.1730000 -23.0230000   3.3460000 -21.9550000 -23.0820000
   4.7740000 -21.2320000 -23.8820000   3.6350000 -20.1900000 -22.9800000
   5.9380000 -20.2930000 -21.7240000   6.5460000 -20.4470000 -20.8310000
   5.4270000 -19.3310000 -21.6610000   6.5560000 -20.3470000 -22.6220000
   5.5950000 -22.6940000 -21.8670000   6.2390000 -22.8090000 -20.9950000
   6.1910000 -22.7160000 -22.7800000   4.8410000 -23.4830000 -21.8880000
   6.7410000 -18.8370000 -17.4280000   6.6610000 -21.3680000 -17.0250000
   5.1240000 -17.8570000 -14.8280000   5.9910000 -16.9890000 -14.2880000
   6.0980000 -15.8260000 -14.6330000   6.8320000 -17.6080000 -13.1920000
   7.7420000 -18.0140000 -13.6380000   7.1150000 -16.8300000 -12.4810000
   6.0690000 -18.7340000 -12.4630000   5.1280000 -18.3210000 -12.0940000
   5.8200000 -19.5230000 -13.1760000   6.8500000 -19.3830000 -11.3100000
   7.8000000 -19.7530000 -11.6990000   7.0770000 -18.6370000 -10.5450000
   6.0700000 -20.5590000 -10.6870000   5.8660000 -21.3020000 -11.4600000
   6.6920000 -21.0400000  -9.9290000   4.7480000 -20.1230000 -10.0310000
   4.9820000 -19.4530000  -9.2010000   4.1360000 -19.5640000 -10.7420000
   3.9100000 -21.3120000  -9.5300000   3.6550000 -21.9500000 -10.3790000
   4.4990000 -21.9140000  -8.8340000   2.6130000 -20.8510000  -8.8410000
   2.0530000 -20.2160000  -9.5310000   1.9870000 -21.7220000  -8.6370000
   2.9240000 -20.0680000  -7.5800000   3.4780000 -19.1480000  -7.7460000
   2.6080000 -20.4010000  -6.3340000   2.9270000 -19.7380000  -5.5340000
   1.8330000 -21.6260000  -5.8800000   1.6150000 -22.2910000  -6.7180000
   2.4370000 -22.2030000  -5.1770000   0.5000000 -21.2410000  -5.2030000
   0.0550000 -20.4030000  -5.7430000  -0.1950000 -22.0780000  -5.3020000
   0.6010000 -20.8870000  -3.7030000  -0.3840000 -20.5690000  -3.3550000
   0.8610000 -21.7860000  -3.1400000   1.6330000 -19.7900000  -3.3900000
   2.6360000 -20.1910000  -3.5500000   1.4930000 -18.9570000  -4.0810000
   1.5470000 -19.2540000  -1.9540000   0.5810000 -18.7660000  -1.8090000
   1.6230000 -20.0780000  -1.2420000   2.6770000 -18.2470000  -1.6910000
   3.6380000 -18.7600000  -1.7640000   2.6620000 -17.4890000  -2.4770000
   2.5590000 -17.5560000  -0.3230000   1.6460000 -16.9570000  -0.2970000
   2.4820000 -18.3070000   0.4660000   3.7700000 -16.6550000  -0.0370000
   3.6190000 -16.1230000   0.9040000   3.9080000 -15.9220000  -0.8340000
   4.6810000 -17.2510000   0.0450000  -2.0390000 -16.9170000  -2.4810000
  -1.8210000 -17.4280000  -1.5410000  -3.0550000 -16.5210000  -2.4190000
  -1.3430000 -16.0830000  -2.5880000  -1.9000000 -17.9000000  -3.6560000
  -2.6290000 -18.7030000  -3.5210000  -0.9070000 -18.3530000  -3.6240000
  -2.1030000 -17.2710000  -5.0470000  -2.1000000 -18.0700000  -5.7910000
  -1.2630000 -16.6140000  -5.2850000  -3.4170000 -16.4800000  -5.1540000
  -3.3670000 -15.5920000  -4.5200000  -4.2290000 -17.1090000  -4.7800000
  -3.7490000 -16.0520000  -6.5920000  -3.7760000 -16.9480000  -7.2170000
  -2.9670000 -15.3970000  -6.9820000  -5.1100000 -15.3300000  -6.6350000
  -5.0310000 -14.3790000  -6.1030000  -5.8380000 -15.9380000  -6.0940000
  -5.6680000 -15.0750000  -8.0460000  -5.0480000 -14.3390000  -8.5620000
  -6.6670000 -14.6450000  -7.9470000  -5.7400000 -16.3620000  -8.8880000
  -6.0650000 -17.1980000  -8.2660000  -4.7370000 -16.5970000  -9.2500000
  -6.7070000 -16.2320000 -10.0750000  -6.6180000 -15.2390000 -10.5210000
  -7.7220000 -16.3240000  -9.6840000  -6.5030000 -17.3070000 -11.1610000
  -7.4860000 -17.6530000 -11.4870000  -5.9970000 -18.1770000 -10.7360000
  -5.7540000 -16.7890000 -12.4080000  -6.3940000 -16.0400000 -12.8790000
  -5.6560000 -17.6000000 -13.1330000  -4.3710000 -16.1370000 -12.1760000
  -4.3540000 -15.5600000 -11.2490000  -4.2190000 -15.4150000 -12.9820000
  -3.1750000 -17.1080000 -12.2210000  -2.2620000 -16.5120000 -12.2840000
  -3.2440000 -17.6840000 -13.1460000  -3.0450000 -18.0650000 -11.0180000
  -3.9510000 -18.6680000 -10.9200000  -2.9450000 -17.4700000 -10.1080000
  -1.8320000 -19.0140000 -11.1040000  -1.7250000 -19.5390000 -10.1530000
  -0.9130000 -18.4450000 -11.2630000  -1.9830000 -20.0430000 -12.1980000
  -2.3550000 -21.1820000 -11.9870000  -1.6390000 -19.5750000 -13.4170000
  -1.8460000 -20.4470000 -14.5650000  -1.7100000 -21.4970000 -14.2940000
  -1.0830000 -20.1950000 -15.3060000  -3.2320000 -20.2440000 -15.2330000
  -3.3550000 -21.0590000 -15.9510000  -3.2790000 -18.9200000 -16.0400000
  -2.4650000 -18.9130000 -16.7690000  -3.1350000 -18.0760000 -15.3600000
  -4.5410000 -18.7300000 -16.7540000  -5.1320000 -19.8280000 -17.7770000
  -3.8280000 -20.3040000 -18.5810000  -3.3960000 -19.6300000 -19.7740000
  -2.3180000 -19.7700000 -19.8860000  -3.5950000 -18.5600000 -19.6760000
  -4.1470000 -20.2210000 -20.9940000  -3.8450000 -19.6760000 -21.8890000
  -5.2180000 -20.0680000 -20.8490000  -3.9650000 -21.6880000 -21.3170000
  -4.6460000 -21.9890000 -22.6110000  -5.7060000 -21.7510000 -22.5160000
  -4.5210000 -23.0510000 -22.8290000  -4.1880000 -21.3930000 -23.4020000
  -2.5180000 -22.0320000 -21.4670000  -2.0140000 -21.8500000 -20.5160000
  -2.0860000 -21.4140000 -22.2550000  -2.4380000 -23.0890000 -21.7260000
  -4.5760000 -22.5670000 -20.2740000  -4.0610000 -22.3920000 -19.3290000
  -4.4650000 -23.6070000 -20.5830000  -5.6310000 -22.3060000 -20.1730000
  -5.6620000 -20.9890000 -17.0260000  -6.0350000 -19.1420000 -18.7320000
  -4.3310000 -20.2680000 -14.2750000  -4.8940000 -21.4700000 -14.0290000
  -4.3530000 -22.5400000 -14.2660000  -6.2810000 -21.3590000 -13.4250000
  -6.5640000 -20.3110000 -13.3100000  -6.9860000 -21.8090000 -14.1270000
  -6.3730000 -22.0880000 -12.0740000  -7.4140000 -22.3510000 -11.8740000
  -5.8210000 -23.0280000 -12.1380000  -5.8530000 -21.2430000 -10.8960000
  -4.9690000 -20.6790000 -11.2000000  -6.6220000 -20.5170000 -10.6240000
  -5.5130000 -22.1080000  -9.6690000  -5.5220000 -21.4750000  -8.7790000
  -6.2840000 -22.8700000  -9.5380000  -4.1280000 -22.7740000  -9.8030000
  -4.0500000 -23.2620000 -10.7770000  -3.3590000 -22.0000000  -9.7660000
  -3.8320000 -23.8240000  -8.7200000  -4.5640000 -24.6280000  -8.8180000
  -2.8500000 -24.2640000  -8.9120000  -3.8700000 -23.2940000  -7.2770000
  -4.8650000 -22.9040000  -7.0520000  -3.6970000 -24.1390000  -6.6080000
  -2.7930000 -22.2560000  -7.0430000  -1.8040000 -22.5320000  -7.3970000
  -2.9610000 -21.0810000  -6.4450000  -2.1040000 -20.4230000  -6.3270000
  -4.2640000 -20.5280000  -5.9000000  -4.1150000 -19.4740000  -5.6580000
  -5.0390000 -20.5580000  -6.6690000  -4.7690000 -21.2530000  -4.6330000
  -5.5680000 -20.6500000  -4.1950000  -5.2280000 -22.2020000  -4.9180000
  -3.6910000 -21.5060000  -3.5550000  -2.7730000 -20.9710000  -3.8050000
  -4.0470000 -21.1020000  -2.6050000  -3.3840000 -23.0090000  -3.3860000
  -4.2740000 -23.5090000  -2.9970000  -3.1720000 -23.4490000  -4.3620000
  -2.1930000 -23.3080000  -2.4560000  -2.1130000 -24.3900000  -2.3320000
  -1.2760000 -22.9660000  -2.9400000  -2.3140000 -22.6430000  -1.0730000
  -2.2060000 -21.5620000  -1.1820000  -3.3160000 -22.8270000  -0.6780000
  -1.2820000 -23.1520000  -0.0470000  -1.4380000 -22.6150000   0.8910000
  -1.4650000 -24.2100000   0.1510000   0.1820000 -22.9710000  -0.4770000
   0.8520000 -23.2990000   0.3210000   0.3950000 -21.9230000  -0.6960000
   0.3970000 -23.5640000  -1.3680000  -3.2230000  14.2020000  -1.0340000
  -3.3420000  14.5190000   0.0040000  -2.4420000  14.8140000  -1.4880000
  -2.9030000  13.1580000  -1.0440000  -4.5480000  14.3710000  -1.7950000
  -4.8180000  15.4290000  -1.8030000  -5.3370000  13.8400000  -1.2580000
  -4.4790000  13.8460000  -3.2430000  -4.2510000  12.7790000  -3.2280000
  -3.6740000  14.3560000  -3.7770000  -5.8100000  14.0890000  -3.9820000
  -5.9620000  15.1700000  -4.0060000  -6.5960000  13.6610000  -3.3570000
  -5.8750000  13.4720000  -5.4580000  -5.5290000  12.4770000  -5.1700000
  -4.9010000  13.8590000  -5.7650000  -8.0690000  13.5600000  -7.5620000
  -8.3340000  14.5510000  -7.9340000  -9.0730000  13.2970000  -7.2220000
  -8.2310000  12.7860000  -8.9480000  -8.5130000  11.7510000  -8.7430000
  -7.2870000  12.7530000  -9.4940000  -9.2660000  13.3900000  -9.9190000
  -9.2800000  12.7810000 -10.8260000  -8.9210000  14.3850000 -10.2090000
 -10.7000000  13.4970000  -9.3660000 -10.7200000  14.2010000  -8.5320000
 -11.0080000  12.5260000  -8.9710000 -11.7180000  13.9410000 -10.4370000
 -12.7010000  14.0460000  -9.9730000 -11.8090000  13.1490000 -11.1840000
 -11.3690000  15.2580000 -11.1620000 -12.1790000  15.4930000 -11.8560000
 -10.4700000  15.1130000 -11.7660000 -11.1600000  16.4600000 -10.2180000
 -10.3310000  16.2580000  -9.5350000 -12.0580000  16.6010000  -9.6130000
 -10.8580000  17.7530000 -10.9990000 -11.6790000  17.9480000 -11.6920000
  -9.9540000  17.6050000 -11.5930000 -10.6770000  18.9740000 -10.0750000
  -9.8220000  18.8160000  -9.4140000 -11.5600000  19.0590000  -9.4380000
 -10.4990000  20.2990000 -10.8440000 -10.6630000  21.1370000 -10.1630000
 -11.2470000  20.3730000 -11.6370000  -9.1150000  20.4320000 -11.4350000
  -8.2170000  21.0450000 -10.8900000  -8.9890000  19.8100000 -12.6250000
  -7.6600000  19.7270000 -13.2240000  -6.9110000  19.5790000 -12.4420000
  -7.4360000  20.6600000 -13.7480000  -7.5660000  18.5280000 -14.1990000
  -6.5700000  18.5420000 -14.6490000  -8.6440000  18.6110000 -15.3110000
  -8.3960000  19.4390000 -15.9790000  -9.6260000  18.7980000 -14.8690000
  -8.7090000  17.3660000 -16.0650000  -8.7150000  17.3340000 -17.6790000
  -7.1750000  17.6180000 -18.0540000  -6.1430000  16.6710000 -17.7060000
  -6.5790000  15.7480000 -17.3150000  -5.5330000  17.1150000 -16.9160000
  -5.2530000  16.3750000 -18.9370000  -4.3900000  15.7960000 -18.6020000
  -4.8880000  17.3170000 -19.3480000  -5.8380000  15.6000000 -20.0960000
  -4.7440000  15.2880000 -21.0630000  -4.3100000  16.2250000 -21.4150000
  -5.1680000  14.7310000 -21.9000000  -3.9880000  14.6850000 -20.5570000
  -6.4330000  14.3080000 -19.6410000  -7.2810000  14.5320000 -18.9920000
  -5.6740000  13.7410000 -19.1000000  -6.7710000  13.7530000 -20.5170000
  -6.8750000  16.3880000 -20.8220000  -7.7020000  16.5720000 -20.1350000
  -7.2180000  15.8100000 -21.6810000  -6.4350000  17.3330000 -21.1440000
  -9.0630000  15.9570000 -18.1230000  -9.5310000  18.4710000 -18.1840000
  -7.7610000  17.3140000 -13.4240000  -6.9830000  16.2390000 -13.6480000
  -6.0890000  16.1810000 -14.4770000  -7.3200000  15.1120000 -12.7000000
  -8.1170000  15.4410000 -12.0290000  -7.7160000  14.2710000 -13.2740000
  -6.1070000  14.6530000 -11.8630000  -6.4540000  13.9370000 -11.1150000
  -5.4110000  14.1150000 -12.5100000  -5.3350000  15.7830000 -11.1510000
  -4.6010000  15.3350000 -10.4780000  -4.7750000  16.3410000 -11.9050000
  -6.2240000  16.7610000 -10.3520000  -6.9050000  17.2760000 -11.0330000
  -6.8440000  16.1990000  -9.6500000  -5.4290000  17.8330000  -9.5790000
  -6.1350000  18.5770000  -9.2050000  -4.9520000  17.3740000  -8.7110000
  -4.3360000  18.5240000 -10.4190000  -3.5260000  17.8110000 -10.5840000
  -4.7330000  18.7950000 -11.3990000  -3.7510000  19.7770000  -9.7420000
  -3.5600000  19.5790000  -8.6860000  -2.7850000  19.9960000 -10.2000000
  -4.6540000  20.9750000  -9.9460000  -4.6180000  21.3920000 -10.9490000
  -5.4290000  21.5650000  -9.0420000  -6.0050000  22.4360000  -9.3440000
  -5.6600000  21.1180000  -7.6120000  -5.1700000  20.1630000  -7.4110000
  -5.2250000  21.8540000  -6.9320000  -7.1630000  20.9780000  -7.2900000
  -7.6020000  20.2250000  -7.9470000  -7.2560000  20.6060000  -6.2670000
  -7.9550000  22.2980000  -7.4270000  -7.5210000  23.0450000  -6.7600000
  -7.8580000  22.6780000  -8.4460000  -9.4550000  22.1600000  -7.1050000
  -9.9400000  23.1200000  -7.2930000  -9.9100000  21.4350000  -7.7830000
  -9.7120000  21.7340000  -5.6470000  -9.3900000  20.6970000  -5.5260000
  -9.1060000  22.3510000  -4.9810000 -11.1940000  21.8510000  -5.2460000
 -11.4870000  22.9030000  -5.2870000 -11.8050000  21.3150000  -5.9760000
 -11.5100000  21.2990000  -3.8420000 -12.5920000  21.3200000  -3.6950000
 -11.1970000  20.2540000  -3.7870000 -10.8510000  22.0720000  -2.6920000
 -11.1040000  21.6110000  -1.7350000 -11.2120000  23.1030000  -2.6780000
  -9.7640000  22.0760000  -2.7940000 -21.9460000  45.5520000  -0.1210000
 -21.9790000  45.2750000   0.9350000 -22.2400000  46.6000000  -0.2090000
 -20.9140000  45.4510000  -0.4640000 -22.8850000  44.6560000  -0.9460000
 -23.8810000  44.6780000  -0.4970000 -22.5350000  43.6230000  -0.8960000
 -22.9910000  45.0930000  -2.4210000 -23.3900000  46.1080000  -2.4690000
 -23.7030000  44.4450000  -2.9350000 -21.6450000  45.0450000  -3.1650000
 -21.1960000  44.0580000  -3.0390000 -20.9640000  45.7790000  -2.7290000
 -21.7940000  45.3300000  -4.6690000 -22.3470000  46.2610000  -4.8130000
 -22.3680000  44.5250000  -5.1320000 -20.4140000  45.4530000  -5.3370000
 -19.8330000  44.5470000  -5.1490000 -19.8830000  46.2840000  -4.8680000
 -20.4630000  45.7150000  -6.8520000 -19.4520000  45.9410000  -7.1940000
 -21.0760000  46.5970000  -7.0490000 -21.0010000  44.5190000  -7.6570000
 -22.0440000  44.3330000  -7.3920000 -20.4270000  43.6270000  -7.4010000
 -20.8970000  44.7860000  -9.1690000 -19.8510000  44.9420000  -9.4380000
 -21.4310000  45.7100000  -9.4030000 -21.4770000  43.6530000 -10.0330000
 -21.4330000  43.9630000 -11.0790000 -22.5290000  43.5190000  -9.7740000
 -20.7410000  42.3100000  -9.8750000 -20.9310000  41.9030000  -8.8800000
 -19.6650000  42.4760000  -9.9620000 -21.1650000  41.2780000 -10.9350000
 -20.5940000  40.3600000 -10.7790000 -20.8990000  41.6590000 -11.9240000
 -22.6700000  40.9510000 -10.9130000 -23.2500000  41.8580000 -11.0960000
 -22.9440000  40.5760000  -9.9250000 -23.0320000  39.9000000 -11.9760000
 -22.4360000  39.0030000 -11.7950000 -22.7620000  40.2670000 -12.9690000
 -24.5210000  39.5070000 -11.9560000 -24.8690000  39.3670000 -10.9310000
 -24.6300000  38.5480000 -12.4670000 -25.3850000  40.5300000 -12.6560000
 -25.7280000  41.5910000 -12.1650000 -25.7440000  40.1110000 -13.8850000
 -26.4980000  40.9950000 -14.7660000 -27.1660000  41.6400000 -14.1910000
 -27.1150000  40.3710000 -15.4180000 -25.5560000  41.8340000 -15.6720000
 -26.1670000  42.4290000 -16.3560000 -24.6180000  40.9440000 -16.5250000
 -24.6170000  39.9250000 -16.1310000 -23.5940000  41.3220000 -16.4780000
 -25.0740000  40.9000000 -17.9080000 -24.4420000  41.8420000 -19.0690000
 -25.1170000  43.2840000 -18.8170000 -24.4910000  44.2960000 -18.0000000
 -23.9800000  43.8250000 -17.1560000 -25.2710000  44.9530000 -17.6070000
 -23.4750000  45.1280000 -18.8230000 -22.6510000  44.4840000 -19.1360000
 -23.0650000  45.9040000 -18.1740000 -23.9500000  45.8380000 -20.0700000
 -24.0970000  44.8830000 -21.2060000 -23.1400000  44.3820000 -21.3640000
 -24.3900000  45.4390000 -22.0980000 -24.8640000  44.1530000 -20.9440000
 -25.2510000  46.5390000 -19.8520000 -25.1400000  47.2350000 -19.0190000
 -26.0110000  45.7890000 -19.6280000 -25.5120000  47.0770000 -20.7650000
 -22.9310000  46.8570000 -20.4600000 -22.8430000  47.5910000 -19.6570000
 -23.2590000  47.3440000 -21.3790000 -21.9760000  46.3540000 -20.6200000
 -22.9720000  41.9470000 -18.8670000 -24.9430000  41.3400000 -20.3770000
 -24.7130000  42.7300000 -14.8980000 -25.2250000  43.9080000 -14.4940000
 -26.4010000  44.2070000 -14.6090000 -24.1380000  44.8280000 -13.9850000
 -23.5310000  44.2940000 -13.2520000 -23.4780000  45.0460000 -14.8280000
 -24.6570000  46.1670000 -13.4090000 -23.8200000  46.8650000 -13.3460000
 -25.3760000  46.6070000 -14.1040000 -25.3000000  46.0560000 -12.0130000
 -25.7550000  47.0150000 -11.7580000 -26.0990000  45.3120000 -12.0400000
 -24.2670000  45.6920000 -10.9290000 -23.8030000  44.7360000 -11.1830000
 -23.4750000  46.4430000 -10.9240000 -24.8490000  45.5770000  -9.5100000
 -24.0330000  45.3390000  -8.8250000 -25.2640000  46.5380000  -9.2000000
 -25.9300000  44.4880000  -9.4040000 -26.8440000  44.8300000  -9.8950000
 -25.5910000  43.5930000  -9.9290000 -26.2390000  44.1230000  -7.9430000
 -25.3300000  43.7620000  -7.4570000 -26.5540000  45.0180000  -7.4040000
 -27.3300000  43.0790000  -7.8630000 -28.3220000  43.4740000  -7.6550000
 -27.1590000  41.7660000  -7.9740000 -28.0180000  41.1070000  -7.8720000
 -25.8490000  41.0700000  -8.2820000 -26.0000000  40.3830000  -9.1170000
 -25.0800000  41.7790000  -8.5930000 -25.3350000  40.2720000  -7.0700000
 -26.0970000  39.5540000  -6.7610000 -24.4540000  39.7030000  -7.3730000
 -24.9710000  41.1780000  -5.8790000 -24.2300000  41.9130000  -6.2000000
 -25.8630000  41.7240000  -5.5650000 -24.4090000  40.3850000  -4.6840000
 -25.1380000  39.6370000  -4.3650000 -23.5200000  39.8410000  -5.0090000
 -24.0290000  41.2870000  -3.4930000 -23.6000000  40.6650000  -2.7040000
 -23.2430000  41.9760000  -3.8090000 -25.1930000  42.1050000  -2.8970000
 -24.8100000  42.6810000  -2.0520000 -25.5510000  42.8250000  -3.6360000
 -26.3740000  41.2510000  -2.4000000 -26.7850000  40.6600000  -3.2210000
 -26.0170000  40.5590000  -1.6350000 -27.4930000  42.1200000  -1.8070000
 -28.2940000  41.4910000  -1.4120000 -27.9130000  42.7790000  -2.5700000
 -27.1010000  42.7360000  -0.9950000 -44.4940000  24.7110000  -0.8250000
 -45.1940000  24.3990000  -0.0470000 -43.9180000  23.8350000  -1.1280000
 -45.0670000  25.0690000  -1.6830000 -43.5690000  25.8210000  -0.2910000
 -43.0110000  25.4380000   0.5660000 -44.1820000  26.6460000   0.0760000
 -42.5770000  26.3620000  -1.3420000 -41.9810000  27.1520000  -0.8800000
 -43.1320000  26.8150000  -2.1660000 -41.6340000  25.2760000  -1.8950000
 -42.2090000  24.5430000  -2.4650000 -41.1900000  24.7390000  -1.0540000
 -40.4960000  25.8290000  -2.7760000 -39.8480000  24.9990000  -3.0650000
 -39.8870000  26.5160000  -2.1830000 -40.9460000  26.5690000  -4.0480000
 -40.0560000  26.8470000  -4.6160000 -41.4520000  27.4960000  -3.7710000
 -41.8800000  25.7330000  -4.9400000 -42.8480000  25.6220000  -4.4480000
 -41.4620000  24.7340000  -5.0770000 -42.0810000  26.3900000  -6.3150000
 -41.1300000  26.3980000  -6.8510000 -42.3800000  27.4310000  -6.1710000
 -43.1490000  25.6600000  -7.1510000 -44.1190000  25.7750000  -6.6640000
 -42.9270000  24.5910000  -7.1750000 -43.2510000  26.1750000  -8.5980000
 -44.1320000  25.7200000  -9.0560000 -42.3850000  25.8300000  -9.1660000
 -43.3340000  27.7100000  -8.7000000 -42.3530000  28.1300000  -8.4670000
 -44.0350000  28.0940000  -7.9560000 -43.7590000  28.2030000 -10.0950000
 -43.1790000  27.6730000 -10.8530000 -43.5170000  29.2640000 -10.1830000
 -45.2700000  28.0190000 -10.3420000 -45.8180000  28.5720000  -9.5760000
 -45.5420000  26.9670000 -10.2340000 -45.7290000  28.5080000 -11.7260000
 -45.4210000  29.5470000 -11.8610000 -46.8200000  28.4890000 -11.7580000
 -45.1800000  27.6450000 -12.8800000 -45.5040000  26.6090000 -12.7620000
 -44.0880000  27.6580000 -12.8810000 -45.6700000  28.1670000 -14.2060000
 -46.6730000  27.7600000 -14.7690000 -44.8850000  29.1510000 -14.6800000
 -45.3120000  29.8540000 -15.8830000 -46.2810000  30.3220000 -15.6920000
 -45.4330000  29.1400000 -16.7010000 -44.2910000  30.9520000 -16.3040000
 -44.8320000  31.7120000 -16.8730000 -43.1750000  30.4080000 -17.2340000
 -42.4460000  31.2020000 -17.4140000 -43.6170000  30.1230000 -18.1930000
 -42.4920000  29.2520000 -16.6730000 -41.3210000  28.4880000 -17.4860000
 -42.1390000  27.4320000 -18.3850000 -42.6780000  26.2310000 -17.7980000
 -43.4910000  26.4850000 -17.1130000 -41.8900000  25.7270000 -17.2330000
 -43.1550000  25.2820000 -18.9230000 -43.4220000  24.3230000 -18.4760000
 -42.3290000  25.1150000 -19.6160000 -44.3410000  25.6900000 -19.7650000
 -44.0510000  26.9010000 -20.5900000 -43.8410000  27.7340000 -19.9170000
 -44.9200000  27.1220000 -21.2110000 -43.1780000  26.6970000 -21.2110000
 -44.6650000  24.5710000 -20.6990000 -44.9000000  23.6820000 -20.1130000
 -43.7970000  24.3870000 -21.3350000 -45.5220000  24.8620000 -21.3080000
 -45.5420000  25.9500000 -18.9160000 -45.7520000  25.0580000 -18.3250000
 -46.3860000  26.1750000 -19.5700000 -45.3350000  26.8010000 -18.2660000
 -40.6600000  29.4520000 -18.4110000 -40.4760000  27.7410000 -16.5140000
 -43.6690000  31.6100000 -15.1570000 -44.4230000  32.3360000 -14.3100000
 -45.6240000  32.5140000 -14.4500000 -43.5850000  32.9340000 -13.1970000
 -43.0850000  32.1310000 -12.6510000 -42.8000000  33.5290000 -13.6680000
 -44.3770000  33.8410000 -12.2270000 -43.6810000  34.5210000 -11.7320000
 -45.0600000  34.4720000 -12.8000000 -45.1720000  33.0910000 -11.1380000
 -45.8550000  33.8020000 -10.6690000 -45.7840000  32.3090000 -11.5920000
 -44.2720000  32.4840000 -10.0420000 -43.6610000  31.6840000 -10.4640000
 -43.5950000  33.2550000  -9.6690000 -45.0970000  31.9340000  -8.8630000
 -45.7450000  32.7280000  -8.4850000 -45.7340000  31.1240000  -9.2230000
 -44.2140000  31.4200000  -7.7100000 -43.6320000  30.5650000  -8.0580000
 -43.5070000  32.2060000  -7.4350000 -45.0010000  31.0110000  -6.4480000
 -44.2930000  30.7920000  -5.6460000 -45.5970000  31.8680000  -6.1270000
 -45.9240000  29.8380000  -6.7090000 -46.5930000  29.9710000  -7.5550000
 -45.9700000  28.6920000  -6.0350000 -46.6770000  27.9280000  -6.3490000
 -45.1290000  28.3090000  -4.8340000 -44.3530000  27.6130000  -5.1610000
 -44.6240000  29.1670000  -4.3860000 -45.9750000  27.5820000  -3.7740000
 -46.5110000  26.7630000  -4.2580000 -45.3100000  27.1220000  -3.0400000
 -46.9950000  28.4850000  -3.0510000 -47.6410000  28.9680000  -3.7870000
 -47.6360000  27.8480000  -2.4380000 -46.3670000  29.5650000  -2.1440000
 -45.7680000  30.2500000  -2.7480000 -47.1680000  30.1570000  -1.6980000
 -45.5020000  28.9630000  -1.0180000 -46.0440000  28.1330000  -0.5590000
 -44.5870000  28.5510000  -1.4480000 -45.1300000  29.9610000   0.0960000
 -46.0390000  30.2340000   0.6360000 -44.4790000  29.4540000   0.8110000
 -44.4370000  31.2520000  -0.3850000 -45.1450000  31.8530000  -0.9590000
 -44.1560000  31.8420000   0.4900000 -43.1830000  31.0000000  -1.2380000
 -42.6930000  31.9460000  -1.4770000 -43.4460000  30.5080000  -2.1760000
 -42.4710000  30.3680000  -0.7020000   6.2530000  13.9140000  -0.7220000
   6.6580000  13.2810000   0.0710000   5.1710000  13.9810000  -0.5910000
   6.6760000  14.9150000  -0.6190000   6.5910000  13.3270000  -2.1020000
   6.1440000  12.3340000  -2.1830000   7.6730000  13.2100000  -2.1950000
   6.0740000  14.2180000  -3.2430000   6.5550000  15.1970000  -3.1870000
   5.0030000  14.3750000  -3.0990000   6.3380000  13.5950000  -4.6300000
   5.8540000  12.6180000  -4.6870000   7.4110000  13.4290000  -4.7430000
   5.8440000  14.4690000  -5.8000000   6.1740000  14.0150000  -6.7370000
   6.3120000  15.4530000  -5.7330000   4.3120000  14.6260000  -5.8270000
   3.9670000  15.0130000  -4.8660000   3.8530000  13.6440000  -5.9620000
   3.7990000  15.5830000  -6.9140000   4.2550000  16.5640000  -6.7690000
   2.7230000  15.7070000  -6.7710000   4.0570000  15.1180000  -8.3580000
   3.6590000  14.1100000  -8.4960000   5.1310000  15.0830000  -8.5520000
   3.3780000  16.0700000  -9.3590000   3.8990000  17.0300000  -9.3510000
   2.3550000  16.2600000  -9.0280000   3.3170000  15.5340000 -10.7980000
   2.7980000  16.2810000 -11.4020000   2.7050000  14.6290000 -10.8190000
   4.7000000  15.2230000 -11.4060000   5.1330000  14.3660000 -10.8870000
   5.3720000  16.0690000 -11.2440000   4.6330000  14.9090000 -12.9140000
   3.9020000  14.1150000 -13.0750000   5.6000000  14.5220000 -13.2410000
   4.2720000  16.1480000 -13.7620000   4.9990000  16.9400000 -13.5680000
   3.2960000  16.5310000 -13.4580000   4.2120000  15.8900000 -15.2790000
   5.2000000  15.6130000 -15.6540000   3.9540000  16.8340000 -15.7630000
   3.1480000  14.8400000 -15.6850000   2.7260000  15.1190000 -16.6520000
   2.3160000  14.8480000 -14.9780000   3.6720000  13.4310000 -15.8090000
   4.8510000  13.1190000 -15.8040000   2.6770000  12.5510000 -15.9890000
   3.0220000  11.1750000 -16.3180000   3.5740000  10.7270000 -15.4880000
   3.6600000  11.1670000 -17.2060000   1.7390000  10.3570000 -16.6210000
   2.0110000   9.3360000 -16.9030000   0.9310000  10.9880000 -17.7730000
   0.7160000  12.0320000 -17.5300000  -0.0140000  10.4540000 -17.9030000
   1.6830000  10.9290000 -19.0130000   1.3400000  11.9150000 -20.2410000
   2.1430000  13.2520000 -19.8530000   3.5480000  13.3680000 -20.1370000
   3.7050000  13.3930000 -21.2190000   4.0580000  12.4900000 -19.7330000
   4.1110000  14.6430000 -19.4600000   5.1870000  14.6770000 -19.6410000
   3.9520000  14.5710000 -18.3840000   3.5810000  15.9980000 -19.8830000
   3.6670000  16.1690000 -21.3660000   4.7040000  16.0310000 -21.6770000
   3.3290000  17.1740000 -21.6210000   3.0290000  15.4210000 -21.8390000
   2.1650000  16.2060000 -19.4520000   2.1190000  16.1720000 -18.3620000
   1.5470000  15.4150000 -19.8780000   1.8350000  17.1860000 -19.7990000
   4.4080000  17.0640000 -19.2400000   4.3650000  16.9390000 -18.1570000
   3.9870000  18.0350000 -19.5040000   5.4370000  16.9870000 -19.5940000
   1.9420000  11.3390000 -21.4690000  -0.1150000  12.2280000 -20.2300000
   0.8580000  10.3170000 -15.4660000   1.1860000   9.5540000 -14.4080000
   2.2140000   8.9040000 -14.3250000   0.1080000   9.5780000 -13.3530000
  -0.6100000  10.3630000 -13.5990000  -0.4300000   8.6290000 -13.3900000
   0.6560000   9.8240000 -11.9320000   1.3750000   9.0450000 -11.6710000
   1.1740000  10.7850000 -11.8920000  -0.5090000   9.8130000 -10.9280000
  -1.1750000  10.6490000 -11.1520000  -1.0830000   8.8950000 -11.0770000
  -0.1010000   9.8880000  -9.4490000  -0.9940000   9.7120000  -8.8460000
   0.6060000   9.0870000  -9.2210000   0.5080000  11.2460000  -9.0580000
   1.4810000  11.3670000  -9.5380000  -0.1410000  12.0490000  -9.4140000
   0.6690000  11.3630000  -7.5310000  -0.3120000  11.2660000  -7.0610000
   1.2860000  10.5360000  -7.1730000   1.3090000  12.6840000  -7.0750000
   1.4600000  12.6490000  -5.9940000   2.3020000  12.7600000  -7.5230000
   0.4850000  13.9000000  -7.4450000   0.7870000  14.3990000  -8.3620000
  -0.4840000  14.4310000  -6.7060000  -0.9750000  15.3380000  -7.0520000
  -1.0690000  13.8380000  -5.4400000  -2.1580000  13.8800000  -5.5170000
  -0.8100000  12.7830000  -5.3370000  -0.6460000  14.6160000  -4.1760000
  -0.8120000  15.6820000  -4.3440000  -1.2970000  14.3200000  -3.3510000
   0.8190000  14.3950000  -3.7430000   1.4810000  14.5960000  -4.5880000
   1.0670000  15.1190000  -2.9640000   1.0780000  12.9750000  -3.1970000
   0.4540000  12.8070000  -2.3170000   0.7830000  12.2360000  -3.9460000
   2.5550000  12.7570000  -2.8200000   3.1860000  12.9740000  -3.6850000
   2.8290000  13.4730000  -2.0420000   2.8620000  11.3340000  -2.3100000
   3.9070000  11.2950000  -1.9940000   2.2580000  11.1390000  -1.4210000
   2.6160000  10.2060000  -3.3350000   2.8510000   9.2500000  -2.8630000
   1.5580000  10.1720000  -3.6060000   3.4610000  10.3410000  -4.6150000
   3.2900000   9.4840000  -5.2690000   4.5240000  10.3810000  -4.3680000
   3.1960000  11.2470000  -5.1650000 -21.0010000  14.9960000  -2.7220000
 -21.8800000  15.6250000  -2.5670000 -20.1750000  15.4080000  -2.1370000
 -21.2250000  13.9930000  -2.3510000 -20.6350000  14.9510000  -4.2140000
 -20.4420000  15.9690000  -4.5590000 -21.4940000  14.5730000  -4.7710000
 -19.3940000  14.0750000  -4.4830000 -19.6180000  13.0300000  -4.2550000
 -18.6120000  14.3870000  -3.7890000 -18.8170000  14.1890000  -5.9110000
 -17.7620000  13.9160000  -5.8530000 -18.8440000  15.2320000  -6.2350000
 -19.4580000  13.2930000  -6.9950000 -19.4360000  12.2530000  -6.6640000
 -18.8240000  13.3570000  -7.8810000 -20.9010000  13.6710000  -7.3880000
 -20.9580000  14.7460000  -7.5750000 -21.5650000  13.4490000  -6.5500000
 -21.4370000  12.9160000  -8.6230000 -22.5020000  13.1400000  -8.7140000
 -21.3480000  11.8410000  -8.4570000 -20.7280000  13.2960000  -9.9410000
 -19.6680000  13.0430000  -9.8650000 -20.7930000  14.3760000 -10.0850000
 -21.2980000  12.5860000 -11.1870000 -21.2680000  11.5060000 -11.0280000
 -20.6450000  12.8010000 -12.0350000 -22.7390000  13.0120000 -11.5390000
 -22.7870000  14.0950000 -11.6660000 -23.3960000  12.7580000 -10.7040000
 -23.2830000  12.3100000 -12.7980000 -24.3690000  12.4270000 -12.8220000
 -23.0880000  11.2390000 -12.7090000 -22.7080000  12.8040000 -14.1420000
 -23.0780000  12.1340000 -14.9210000 -21.6200000  12.7200000 -14.1430000
 -23.1240000  14.2480000 -14.5020000 -22.5990000  14.9580000 -13.8600000
 -24.1920000  14.3630000 -14.3080000 -22.8550000  14.5780000 -15.9860000
 -23.1550000  13.7150000 -16.5850000 -21.7840000  14.7200000 -16.1510000
 -23.6450000  15.7960000 -16.5180000 -24.6780000  15.7630000 -16.1640000
 -23.6900000  15.7260000 -17.6070000 -23.0460000  17.1410000 -16.1630000
 -22.5460000  17.4040000 -15.0810000 -23.1630000  18.0200000 -17.1830000
 -22.5310000  19.3340000 -17.0740000 -22.5300000  19.6710000 -16.0340000
 -23.1350000  20.0460000 -17.6430000 -21.0790000  19.3650000 -17.6390000
 -20.6010000  20.2390000 -17.1890000 -21.0210000  19.5350000 -19.1820000
 -19.9810000  19.6690000 -19.4910000 -21.5580000  20.4480000 -19.4500000
 -21.6280000  18.4360000 -19.9220000 -20.7470000  17.3790000 -20.7790000
 -21.4450000  15.9620000 -20.4540000 -21.1700000  15.2460000 -19.2350000
 -22.0380000  14.6260000 -18.9940000 -21.0260000  15.9600000 -18.4210000
 -19.9150000  14.3520000 -19.4040000 -19.6900000  13.8810000 -18.4450000
 -19.0660000  14.9790000 -19.6780000 -19.9540000  13.2320000 -20.4190000
 -21.1260000  12.3310000 -20.1910000 -21.0890000  11.9590000 -19.1660000
 -21.0700000  11.5030000 -20.8990000 -22.0400000  12.9030000 -20.3600000
 -20.0030000  13.7490000 -21.8180000 -19.1510000  14.4120000 -21.9730000
 -20.9350000  14.3020000 -21.9490000 -19.9640000  12.9050000 -22.5090000
 -18.7080000  12.4210000 -20.2820000 -17.8500000  13.0700000 -20.4600000
 -18.7310000  11.6190000 -21.0230000 -18.6650000  12.0030000 -19.2750000
 -20.9720000  17.6660000 -22.2240000 -19.3450000  17.3510000 -20.2750000
 -20.3630000  18.1590000 -17.2450000 -19.0400000  18.2210000 -17.0090000
 -18.3810000  19.2490000 -17.0040000 -18.4610000  16.8630000 -16.6910000
 -18.7650000  16.1520000 -17.4620000 -17.3710000  16.9260000 -16.7020000
 -18.9470000  16.3830000 -15.3120000 -18.6620000  17.1340000 -14.5720000
 -20.0370000  16.3190000 -15.3100000 -18.3670000  15.0120000 -14.9140000
 -18.6460000  14.2720000 -15.6670000 -17.2770000  15.0640000 -14.9120000
 -18.8680000  14.5260000 -13.5370000 -19.9300000  14.2890000 -13.6230000
 -18.3560000  13.5980000 -13.2760000 -18.6970000  15.5450000 -12.3910000
 -19.3460000  16.4010000 -12.5910000 -19.0590000  15.1000000 -11.4620000
 -17.2460000  16.0260000 -12.1700000 -16.6850000  15.2450000 -11.6520000
 -16.7480000  16.1950000 -13.1270000 -17.1710000  17.3350000 -11.3640000
 -17.6640000  17.2070000 -10.3980000 -16.1180000  17.5450000 -11.1680000
 -17.7540000  18.4890000 -12.1570000 -17.3480000  18.6020000 -13.1590000
 -18.6780000  19.3480000 -11.7390000 -19.0090000  20.1360000 -12.4100000
 -19.3600000  19.3390000 -10.3870000 -19.5230000  18.3190000 -10.0320000
 -18.7160000  19.8470000  -9.6660000 -20.7080000  20.0810000 -10.4520000
 -20.5590000  21.0520000 -10.9280000 -21.3930000  19.5150000 -11.0870000
 -21.3680000  20.3060000  -9.0760000 -22.3410000  20.7750000  -9.2330000
 -21.5450000  19.3440000  -8.5920000 -20.5240000  21.2040000  -8.1470000
 -19.6080000  20.6810000  -7.8660000 -20.2350000  22.1070000  -8.6880000
 -21.2740000  21.6100000  -6.8660000 -22.1630000  22.1830000  -7.1380000
 -21.6040000  20.7110000  -6.3410000 -20.3820000  22.4600000  -5.9390000
 -19.5500000  21.8500000  -5.5800000 -19.9520000  23.2770000  -6.5210000
 -21.1300000  23.0600000  -4.7340000 -20.4440000  23.6950000  -4.1700000
 -21.9350000  23.7040000  -5.0960000 -21.7120000  21.9980000  -3.7860000
 -22.2680000  22.4790000  -2.9790000 -20.9120000  21.3980000  -3.3470000
 -22.3940000  21.3310000  -4.3180000 -47.8140000  16.5350000  -0.8840000
 -47.9170000  16.0990000   0.1110000 -47.0710000  17.3340000  -0.8320000
 -47.4510000  15.7620000  -1.5650000 -49.1600000  17.0930000  -1.3720000
 -49.5080000  17.8480000  -0.6650000 -49.9000000  16.2900000  -1.3880000
 -49.0470000  17.7180000  -2.7750000 -48.7490000  16.9500000  -3.4930000
 -48.2590000  18.4730000  -2.7590000 -50.3720000  18.3590000  -3.2310000
 -50.6870000  19.0910000  -2.4850000 -51.1430000  17.5860000  -3.2700000
 -50.2950000  19.0510000  -4.6060000 -51.3020000  19.3540000  -4.8990000
 -49.9450000  18.3330000  -5.3500000 -49.3820000  20.2940000  -4.6180000
 -48.3720000  20.0160000  -4.3090000 -49.7570000  21.0270000  -3.9000000
 -49.3080000  20.9420000  -6.0120000 -50.3110000  21.2300000  -6.3340000
 -48.9290000  20.2070000  -6.7260000 -48.3990000  22.1840000  -6.0300000
 -47.4240000  21.9230000  -5.6120000 -48.8360000  22.9560000  -5.3940000
 -48.2040000  22.7320000  -7.4560000 -49.1740000  22.9870000  -7.8860000
 -47.7740000  21.9360000  -8.0680000 -47.2890000  23.9740000  -7.4930000
 -46.3630000  23.7590000  -6.9560000 -47.7830000  24.7940000  -6.9660000
 -46.9410000  24.4500000  -8.9170000 -46.4000000  25.3950000  -8.8430000
 -47.8590000  24.6440000  -9.4770000 -46.0740000  23.4280000  -9.6760000
 -46.6410000  22.5040000  -9.8040000 -45.1960000  23.1930000  -9.0720000
 -45.6120000  23.9030000 -11.0660000 -45.0210000  24.8160000 -10.9730000
 -46.4820000  24.1270000 -11.6870000 -44.7640000  22.8080000 -11.7350000
 -45.3600000  21.8950000 -11.7990000 -43.9040000  22.5930000 -11.0970000
 -44.2690000  23.1730000 -13.1470000 -43.6580000  24.0770000 -13.1160000
 -45.1270000  23.3750000 -13.7910000 -43.4540000  22.0470000 -13.7490000
 -42.7390000  21.3060000 -13.0920000 -43.6010000  21.9680000 -15.0890000
 -42.9870000  20.8330000 -15.7790000 -42.0400000  20.5660000 -15.3040000
 -42.7570000  21.1450000 -16.8010000 -43.9070000  19.5760000 -15.8430000
 -43.2380000  18.7140000 -15.8910000 -44.8060000  19.5560000 -17.1080000
 -45.4440000  18.6680000 -17.0810000 -44.1750000  19.4890000 -17.9980000
 -45.6300000  20.7490000 -17.2250000 -47.2390000  20.6530000 -17.3210000
 -47.4460000  20.0240000 -18.7860000 -47.2980000  20.8440000 -19.9580000
 -46.3470000  21.3800000 -19.8960000 -48.1090000  21.5760000 -19.9990000
 -47.2930000  19.9490000 -21.2200000 -46.4430000  19.2660000 -21.1750000
 -47.1640000  20.5910000 -22.0930000 -48.5080000  19.0980000 -21.5070000
 -48.5550000  17.9030000 -20.6120000 -47.6450000  17.3200000 -20.7610000
 -49.4350000  17.3090000 -20.8650000 -48.6160000  18.2500000 -19.5790000
 -49.7740000  19.8750000 -21.3510000 -49.7300000  20.7500000 -22.0010000
 -49.8650000  20.1770000 -20.3070000 -50.6130000  19.2350000 -21.6320000
 -48.4320000  18.6110000 -22.9160000 -48.4320000  19.4730000 -23.5840000
 -49.3000000  17.9810000 -23.1150000 -47.5120000  18.0370000 -23.0380000
 -47.7450000  19.6720000 -16.3210000 -47.7970000  22.0340000 -17.3160000
 -44.7330000  19.4720000 -14.6460000 -45.1270000  18.2560000 -14.2210000
 -44.7570000  17.2020000 -14.7110000 -46.0770000  18.3400000 -13.0520000
 -46.8640000  19.0550000 -13.3000000 -46.5490000  17.3680000 -12.8950000
 -45.3590000  18.7900000 -11.7660000 -44.6340000  18.0310000 -11.4630000
 -44.8060000  19.7100000 -11.9640000 -46.3640000  19.0440000 -10.6270000
 -47.1440000  19.7140000 -10.9920000 -46.8490000  18.1050000 -10.3520000
 -45.7310000  19.6830000  -9.3780000 -45.2290000  20.6100000  -9.6620000
 -46.5340000  19.9500000  -8.6870000 -44.7310000  18.7740000  -8.6420000
 -45.2230000  17.8300000  -8.3960000 -43.8830000  18.5480000  -9.2920000
 -44.2240000  19.4520000  -7.3540000 -43.6970000  20.3710000  -7.6190000
 -45.0830000  19.7420000  -6.7440000 -43.2870000  18.5720000  -6.5050000
 -42.3880000  18.3420000  -7.0820000 -42.9610000  19.1410000  -5.6310000
 -43.9500000  17.2810000  -6.0700000 -43.7520000  16.4250000  -6.7100000
 -44.6830000  17.1170000  -4.9740000 -45.0850000  16.1330000  -4.7490000
 -45.0870000  18.2080000  -3.9980000 -45.0670000  19.1870000  -4.4810000
 -46.1180000  18.0350000  -3.6820000 -44.1830000  18.2480000  -2.7500000
 -43.1780000  18.5550000  -3.0480000 -44.5660000  19.0100000  -2.0670000
 -44.1010000  16.8940000  -2.0190000 -45.1050000  16.5610000  -1.7490000
 -43.6890000  16.1490000  -2.7030000 -43.2160000  16.9220000  -0.7610000
 -43.0050000  15.8900000  -0.4740000 -42.2610000  17.3930000  -1.0010000
 -43.8580000  17.6290000   0.4450000 -44.0720000  18.6710000   0.1990000
 -44.8070000  17.1410000   0.6770000 -42.9250000  17.5710000   1.6710000
 -42.6600000  16.5320000   1.8780000 -41.9980000  18.0960000   1.4320000
 -43.5360000  18.1930000   2.9390000 -42.7570000  18.2730000   3.7010000
 -43.8830000  19.2050000   2.7190000 -44.7020000  17.3730000   3.5110000
 -45.0550000  17.8290000   4.4390000 -44.3850000  16.3510000   3.7280000
 -45.5360000  17.3390000   2.8070000 -25.0460000  -1.5960000   3.3340000
 -25.5940000  -1.9110000   4.2250000 -25.7610000  -1.4450000   2.5230000
 -24.5560000  -0.6440000   3.5490000 -24.0080000  -2.6600000   2.9420000
 -24.5160000  -3.6150000   2.7880000 -23.3030000  -2.7930000   3.7650000
 -23.2380000  -2.2860000   1.6630000 -22.7290000  -1.3320000   1.8140000
 -23.9490000  -2.1590000   0.8430000 -22.1930000  -3.3520000   1.2880000
 -22.6900000  -4.3160000   1.1560000 -21.4900000  -3.4640000   2.1160000
 -21.4000000  -3.0150000   0.0110000 -20.6120000  -3.7610000  -0.1060000
 -20.9100000  -2.0450000   0.1260000 -22.2730000  -3.0070000  -1.2580000
 -22.9420000  -2.1450000  -1.2420000 -22.8900000  -3.9080000  -1.2560000
 -21.4250000  -2.9750000  -2.5430000 -20.7680000  -3.8480000  -2.5530000
 -20.7840000  -2.0910000  -2.5260000 -22.2560000  -2.9660000  -3.8430000
 -21.5710000  -3.0000000  -4.6920000 -22.8100000  -2.0270000  -3.9100000
 -23.2410000  -4.1480000  -3.9380000 -24.0510000  -3.9960000  -3.2210000
 -22.7270000  -5.0660000  -3.6470000 -23.8560000  -4.3450000  -5.3370000
 -24.4570000  -5.2560000  -5.3350000 -23.0560000  -4.4920000  -6.0660000
 -24.7410000  -3.1600000  -5.7650000 -24.1100000  -2.2870000  -5.9410000
 -25.4220000  -2.9070000  -4.9490000 -25.5780000  -3.4360000  -7.0280000
 -26.1000000  -2.5120000  -7.2860000 -26.3450000  -4.1800000  -6.8020000
 -24.7390000  -3.9310000  -8.2250000 -24.5140000  -4.9890000  -8.0810000
 -23.7850000  -3.4000000  -8.2500000 -25.4390000  -3.7490000  -9.5860000
 -26.4420000  -4.1810000  -9.5490000 -24.8740000  -4.2960000 -10.3420000
 -25.5180000  -2.2600000  -9.9860000 -24.5140000  -1.8310000  -9.9720000
 -26.1240000  -1.7040000  -9.2670000 -26.0960000  -2.0430000 -11.3610000
 -27.0850000  -1.3640000 -11.5730000 -25.3650000  -2.6240000 -12.3300000
 -25.5790000  -2.2080000 -13.7130000 -26.6470000  -2.1370000 -13.9340000
 -25.1300000  -2.9540000 -14.3750000 -24.8900000  -0.8420000 -13.9510000
 -25.3030000  -0.1330000 -13.2290000 -25.1340000  -0.2890000 -15.3760000
 -24.5310000   0.6110000 -15.5240000 -26.1870000  -0.0120000 -15.4720000
 -24.8320000  -1.2620000 -16.4110000 -23.5820000  -1.0530000 -17.4190000
 -24.0600000   0.2240000 -18.2780000 -25.1340000   0.1320000 -19.2320000
 -25.5920000   1.1200000 -19.3290000 -25.8940000  -0.5600000 -18.8630000
 -24.6010000  -0.3340000 -20.6090000 -25.4290000  -0.3220000 -21.3190000
 -24.2420000  -1.3610000 -20.5270000 -23.4820000   0.4510000 -21.2530000
 -22.1700000   0.1280000 -20.6210000 -22.2120000   0.4360000 -19.5760000
 -21.3860000   0.6720000 -21.1500000 -22.0080000  -0.9490000 -20.6860000
 -23.3950000   0.0710000 -22.6940000 -24.3360000   0.3290000 -23.1820000
 -23.2160000  -1.0030000 -22.7620000 -22.5710000   0.6220000 -23.1500000
 -23.7160000   1.9240000 -21.1690000 -24.6720000   2.1560000 -21.6410000
 -22.9020000   2.4330000 -21.6860000 -23.7260000   2.2100000 -20.1160000
 -22.3720000  -0.6480000 -16.6540000 -23.4970000  -2.2340000 -18.3200000
 -23.4700000  -1.0210000 -13.7070000 -22.7640000  -0.0090000 -13.1760000
 -23.2100000   1.1120000 -12.9880000 -21.3740000  -0.4280000 -12.7610000
 -20.8100000  -0.7360000 -13.6440000 -20.8720000   0.4390000 -12.3260000
 -21.4300000  -1.5910000 -11.7450000 -22.1610000  -1.3600000 -10.9670000
 -21.7930000  -2.4870000 -12.2530000 -20.0720000  -1.9180000 -11.0940000
 -20.1940000  -2.7970000 -10.4580000 -19.3560000  -2.1840000 -11.8740000
 -19.4790000  -0.7830000 -10.2390000 -18.5310000  -1.1300000  -9.8230000
 -19.2510000   0.0740000 -10.8770000 -20.3990000  -0.3370000  -9.0860000
 -21.3340000   0.0540000  -9.4930000 -20.6440000  -1.2040000  -8.4690000
 -19.7550000   0.7540000  -8.2090000 -18.8300000   0.3730000  -7.7700000
 -19.4890000   1.6060000  -8.8380000 -20.6860000   1.2440000  -7.0850000
 -20.2250000   2.1020000  -6.5910000 -21.6180000   1.6040000  -7.5260000
 -20.9950000   0.1460000  -6.0850000 -21.7410000  -0.5760000  -6.4070000
 -20.4760000   0.0450000  -4.8650000 -20.7910000  -0.7680000  -4.2160000
 -19.4060000   0.9490000  -4.2940000 -18.7730000   0.3870000  -3.6030000
 -18.7540000   1.3000000  -5.0970000 -20.0150000   2.1630000  -3.5660000
 -19.2190000   2.8780000  -3.3460000 -20.7190000   2.6670000  -4.2310000
 -20.7260000   1.7910000  -2.2510000 -21.5010000   1.0480000  -2.4500000
 -20.0020000   1.3360000  -1.5720000 -21.3590000   3.0260000  -1.5810000
 -20.6410000   3.8490000  -1.5930000 -22.2230000   3.3510000  -2.1660000
 -21.7880000   2.7840000  -0.1220000 -20.9130000   2.4920000   0.4630000
 -22.1480000   3.7310000   0.2860000 -22.8850000   1.7110000   0.0300000
 -23.7770000   2.0300000  -0.5130000 -22.5480000   0.7760000  -0.4220000
 -23.2590000   1.4260000   1.4970000 -24.0350000   0.6580000   1.5140000
 -22.3890000   1.0230000   2.0200000 -23.7720000   2.6580000   2.2580000
 -24.0920000   2.3720000   3.2630000 -24.6230000   3.1010000   1.7370000
 -22.9880000   3.4120000   2.3540000   3.1470000 -50.5970000  -0.2160000
   2.7060000 -49.9820000   0.5720000   4.1690000 -50.8530000   0.0740000
   2.5690000 -51.5190000  -0.2990000   3.1360000 -49.8330000  -1.5480000
   3.6810000 -48.8930000  -1.4340000   2.1020000 -49.5880000  -1.7980000
   3.7510000 -50.6460000  -2.7000000   3.2430000 -51.6110000  -2.7610000
   4.8030000 -50.8450000  -2.4870000   3.6290000 -49.9220000  -4.0530000
   4.2320000 -49.0110000  -4.0390000   2.5900000 -49.6230000  -4.2090000
   4.0740000 -50.8240000  -5.2170000   3.4860000 -51.7430000  -5.1760000
   5.1220000 -51.0980000  -5.0860000   3.8850000 -50.1510000  -6.5920000
   4.4760000 -49.2330000  -6.6220000   2.8390000 -49.8640000  -6.7120000
   4.2980000 -51.0460000  -7.7790000   5.3630000 -51.2770000  -7.7010000
   4.1570000 -50.4860000  -8.7060000   3.4960000 -52.3600000  -7.8580000
   2.4280000 -52.1330000  -7.8910000   3.6780000 -52.9530000  -6.9590000
   3.8710000 -53.2120000  -9.0820000   4.9490000 -53.3870000  -9.0750000
   3.6260000 -52.6670000  -9.9950000   3.1460000 -54.5700000  -9.0620000
   2.0680000 -54.3980000  -9.0490000   3.4010000 -55.0890000  -8.1360000
   3.4970000 -55.4870000 -10.2470000   3.0890000 -56.4800000 -10.0470000
   4.5820000 -55.5960000 -10.3130000   2.9380000 -54.9820000 -11.5910000
   3.4200000 -54.0390000 -11.8580000   1.8700000 -54.7850000 -11.4800000
   3.1420000 -56.0090000 -12.7210000   2.7230000 -56.9670000 -12.4070000
   4.2090000 -56.1650000 -12.8890000   2.4680000 -55.5940000 -14.0440000
   1.4090000 -55.4000000 -13.8660000   2.5190000 -56.4380000 -14.7360000
   3.1270000 -54.3740000 -14.7190000   3.5000000 -54.6670000 -15.7030000
   3.9900000 -54.0290000 -14.1450000   2.1630000 -53.2220000 -14.8900000
   1.9030000 -52.4270000 -14.0020000   1.6340000 -53.1750000 -16.1320000
   1.0940000 -51.9040000 -16.6120000   0.6190000 -51.3580000 -15.7930000
   0.3280000 -52.1190000 -17.3620000   2.1850000 -51.0070000 -17.2640000
   1.7570000 -50.0060000 -17.3690000   2.6200000 -51.5040000 -18.6660000
   3.2800000 -50.7510000 -19.1030000   1.7470000 -51.6120000 -19.3150000
   3.3290000 -52.7730000 -18.5940000   4.4220000 -53.1880000 -19.7030000
   5.6340000 -52.1690000 -19.4010000   6.4140000 -52.2650000 -18.1930000
   5.7790000 -52.6080000 -17.3710000   6.7970000 -51.2690000 -17.9570000
   7.5900000 -53.2330000 -18.4460000   8.1760000 -52.8720000 -19.2930000
   7.1930000 -54.2160000 -18.7030000   8.5600000 -53.4550000 -17.3140000
   7.8660000 -53.9760000 -16.0950000   7.1770000 -53.2180000 -15.7210000
   8.6180000 -54.2020000 -15.3380000   7.3230000 -54.8830000 -16.3670000
   9.5680000 -54.4690000 -17.7440000  10.0870000 -54.0940000 -18.6280000
   9.0490000 -55.3990000 -17.9800000  10.2760000 -54.6290000 -16.9300000
   9.2840000 -52.1940000 -16.9690000   9.8000000 -51.8340000 -17.8610000
  10.0040000 -52.4110000 -16.1780000   8.5660000 -51.4470000 -16.6280000
   4.8780000 -54.5780000 -19.4250000   3.8790000 -52.8750000 -21.0540000
   3.3460000 -50.9700000 -16.3860000   4.0630000 -49.8450000 -16.2540000
   3.8410000 -48.8010000 -16.8420000   5.1870000 -50.0400000 -15.2670000
   5.5290000 -51.0750000 -15.3310000   6.0290000 -49.3960000 -15.5310000
   4.7050000 -49.7270000 -13.8390000   4.5060000 -48.6560000 -13.7660000
   3.7620000 -50.2420000 -13.6450000   5.7180000 -50.1160000 -12.7480000
   6.6810000 -49.6490000 -12.9630000   5.3630000 -49.7090000 -11.7980000
   5.9150000 -51.6340000 -12.5850000   4.9420000 -52.1130000 -12.4570000
   6.3770000 -52.0510000 -13.4820000   6.7980000 -51.9420000 -11.3640000
   7.7770000 -51.4770000 -11.4950000   6.3400000 -51.4980000 -10.4780000
   6.9780000 -53.4520000 -11.1310000   5.9970000 -53.9290000 -11.0910000
   7.5230000 -53.8920000 -11.9680000   7.7350000 -53.7250000  -9.8190000
   8.7360000 -53.2950000  -9.8960000   7.2180000 -53.2120000  -9.0050000
   7.7740000 -55.2070000  -9.5160000   6.8610000 -55.7410000  -9.7700000
   8.7900000 -55.8730000  -8.9740000   8.6910000 -56.9410000  -8.7990000
  10.0900000 -55.2630000  -8.4850000  10.9320000 -55.8230000  -8.8980000
  10.2090000 -54.2320000  -8.8230000  10.1760000 -55.2900000  -6.9480000
  10.1630000 -56.3260000  -6.6020000  11.1320000 -54.8550000  -6.6460000
   9.0340000 -54.5110000  -6.2640000   9.0010000 -53.4940000  -6.6610000
   8.0800000 -54.9850000  -6.5000000   9.2030000 -54.4500000  -4.7360000
   9.3120000 -55.4630000  -4.3420000  10.1170000 -53.9030000  -4.4960000
   8.0040000 -53.7690000  -4.0510000   7.8830000 -52.7610000  -4.4530000
   7.0970000 -54.3300000  -4.2880000   8.1820000 -53.6900000  -2.5230000
   8.3000000 -54.6970000  -2.1180000   9.1020000 -53.1440000  -2.3010000
   7.0130000 -52.9890000  -1.8040000   7.2560000 -52.9100000  -0.7420000
   6.9100000 -51.9740000  -2.1920000   5.6690000 -53.7230000  -1.9450000
   4.9070000 -53.2320000  -1.3360000   5.7630000 -54.7580000  -1.6110000
   5.3290000 -53.7180000  -2.9830000  15.1910000 -13.7530000  -0.0530000
  14.7590000 -13.4180000   0.8930000  16.1490000 -13.2480000  -0.1950000
  15.3720000 -14.8280000   0.0110000  14.2350000 -13.4330000  -1.2130000
  14.0440000 -12.3580000  -1.2360000  13.2800000 -13.9330000  -1.0360000
  14.8030000 -13.8810000  -2.5720000  15.0100000 -14.9520000  -2.5350000
  15.7510000 -13.3670000  -2.7470000  13.8280000 -13.5980000  -3.7310000
  13.6090000 -12.5290000  -3.7730000  12.8850000 -14.1090000  -3.5260000
  14.3420000 -14.0650000  -5.1070000  13.5410000 -13.9070000  -5.8320000
  14.5330000 -15.1400000  -5.0710000  15.6170000 -13.3380000  -5.5860000
  16.4250000 -13.5210000  -4.8750000  15.4380000 -12.2610000  -5.6090000
  16.0900000 -13.7990000  -6.9780000  16.1850000 -14.8870000  -6.9760000
  17.0850000 -13.3900000  -7.1670000  15.1530000 -13.3660000  -8.1230000
  15.1590000 -12.2770000  -8.2070000  14.1300000 -13.6760000  -7.8980000
  15.5800000 -13.9940000  -9.4610000  15.5170000 -15.0800000  -9.3660000
  16.6260000 -13.7490000  -9.6550000  14.7320000 -13.5500000 -10.6710000
  15.0700000 -14.1150000 -11.5420000  14.9240000 -12.4960000 -10.8790000
  13.2150000 -13.7490000 -10.4710000  12.8560000 -13.0040000  -9.7580000
  13.0170000 -14.7270000 -10.0280000  12.4000000 -13.6080000 -11.7700000
  12.6180000 -12.6350000 -12.2150000  11.3400000 -13.6120000 -11.5090000
  12.6420000 -14.7420000 -12.7920000  12.4300000 -15.6920000 -12.2960000
  13.6890000 -14.7700000 -13.1000000  11.7400000 -14.6460000 -14.0440000
  10.7560000 -14.2650000 -13.7620000  11.5830000 -15.6590000 -14.4210000
  12.3210000 -13.8060000 -15.2050000  11.6220000 -13.7990000 -16.0450000
  13.2390000 -14.2780000 -15.5610000  12.6260000 -12.3800000 -14.8220000
  11.7840000 -11.5320000 -14.5980000  13.9500000 -12.1630000 -14.7560000
  14.4440000 -10.8740000 -14.3030000  14.3060000 -10.7890000 -13.2230000
  13.8880000 -10.0730000 -14.7970000  15.9440000 -10.7400000 -14.6740000
  16.3110000  -9.7540000 -14.3800000  16.1290000 -10.8830000 -16.2010000
  15.5020000 -10.1510000 -16.7170000  15.8340000 -11.8890000 -16.5090000
  17.5140000 -10.6680000 -16.5720000  17.9590000 -10.5370000 -18.1120000
  17.4360000 -11.9050000 -18.7610000  16.1650000 -11.9720000 -19.4300000
  16.2520000 -11.5370000 -20.4290000  15.4290000 -11.3960000 -18.8630000
  15.7100000 -13.4490000 -19.4780000  14.6910000 -13.4910000 -19.8670000
  15.7030000 -13.8490000 -18.4630000  16.5140000 -14.4210000 -20.3110000
  16.6130000 -13.9620000 -21.7300000  15.6070000 -13.8210000 -22.1260000
  17.1420000 -14.7240000 -22.3050000  17.1700000 -13.0240000 -21.7540000
  17.8900000 -14.6070000 -19.7640000  17.8090000 -14.9140000 -18.7210000
  18.4130000 -13.6510000 -19.8250000  18.4110000 -15.3600000 -20.3580000
  15.8280000 -15.7480000 -20.2910000  15.7600000 -16.0920000 -19.2580000
  16.4100000 -16.4510000 -20.8880000  14.8300000 -15.6320000 -20.7160000
  17.2170000  -9.4020000 -18.7140000  19.4390000 -10.5440000 -18.1710000
  16.7290000 -11.7780000 -14.0170000  17.1160000 -11.5780000 -12.7460000
  16.7710000 -10.6140000 -12.0820000  18.0300000 -12.6770000 -12.2490000
  17.4270000 -13.5400000 -11.9580000  18.6720000 -12.9940000 -13.0740000
  18.9080000 -12.2110000 -11.0700000  19.4800000 -11.3360000 -11.3870000
  18.2660000 -11.8980000 -10.2440000  19.8870000 -13.2950000 -10.5770000
  19.3380000 -14.1250000 -10.1270000  20.4360000 -13.6920000 -11.4330000
  20.9060000 -12.7250000  -9.5710000  21.7160000 -13.4440000  -9.4320000
  21.3490000 -11.8320000 -10.0150000  20.3190000 -12.3700000  -8.1880000
  19.2680000 -12.0890000  -8.2810000  20.3600000 -13.2550000  -7.5490000
  21.0800000 -11.1980000  -7.5340000  22.1540000 -11.3890000  -7.5740000
  20.8920000 -10.2970000  -8.1220000  20.6730000 -10.9270000  -6.0740000
  20.9980000  -9.9220000  -5.7960000  19.5840000 -10.9600000  -6.0010000
  21.2810000 -11.9640000  -5.1560000  21.2690000 -12.9770000  -5.5480000
  21.8940000 -11.7310000  -4.0010000  22.3440000 -12.5660000  -3.4700000
  21.9420000 -10.4140000  -3.2550000  22.9090000  -9.9390000  -3.4310000
  21.1710000  -9.7260000  -3.6050000  21.7920000 -10.6430000  -1.7350000
  22.6130000 -11.2780000  -1.3960000  21.8990000  -9.6870000  -1.2190000
  20.4610000 -11.3010000  -1.3110000  20.3240000 -12.2430000  -1.8450000
  20.5180000 -11.5440000  -0.2480000  19.2420000 -10.3920000  -1.5440000
  19.4030000  -9.4540000  -1.0090000  19.1560000 -10.1610000  -2.6080000
  17.9270000 -11.0250000  -1.0510000  17.6960000 -11.9030000  -1.6580000
  18.0660000 -11.3740000  -0.0260000  16.7340000 -10.0470000  -1.0700000
  15.8420000 -10.5730000  -0.7230000  16.9300000  -9.2460000  -0.3530000
  16.4370000  -9.4020000  -2.4380000  15.5730000  -8.7410000  -2.3350000
  17.2800000  -8.7760000  -2.7350000  16.1480000 -10.4180000  -3.5540000
  15.9140000  -9.8970000  -4.4850000  15.2940000 -11.0420000  -3.2840000
  17.0120000 -11.0610000  -3.7310000  41.7480000 -35.8260000  -2.9610000
  42.2830000 -35.4010000  -2.1090000  41.7410000 -35.0820000  -3.7600000
  42.2920000 -36.7090000  -3.3030000  40.3150000 -36.1960000  -2.5490000
  39.7830000 -35.2860000  -2.2640000  40.3660000 -36.8290000  -1.6600000
  39.5010000 -36.9450000  -3.6240000  38.5110000 -37.1430000  -3.2080000
  39.9560000 -37.9190000  -3.8180000  39.3150000 -36.1840000  -4.9540000
  39.2840000 -35.1090000  -4.7650000  38.3450000 -36.4650000  -5.3680000
  40.3900000 -36.5120000  -6.0090000  40.3750000 -37.5880000  -6.1970000
  41.3830000 -36.2620000  -5.6280000  40.1630000 -35.7740000  -7.3400000
  40.1980000 -34.6950000  -7.1750000  39.1680000 -36.0230000  -7.7150000
  41.2180000 -36.1730000  -8.3870000  41.1810000 -37.2560000  -8.5260000
  42.2120000 -35.9340000  -8.0030000  41.0440000 -35.5060000  -9.7640000
  41.8350000 -35.8780000 -10.4190000  41.1870000 -34.4280000  -9.6660000
  39.6760000 -35.7870000 -10.4190000  38.9150000 -35.1510000  -9.9620000
  39.3940000 -36.8240000 -10.2260000  39.6780000 -35.5740000 -11.9450000
  38.6760000 -35.7760000 -12.3320000  40.3470000 -36.3180000 -12.3830000
  40.1140000 -34.1610000 -12.3850000  41.0860000 -33.9190000 -11.9500000
  39.4040000 -33.4310000 -11.9920000  40.2050000 -33.9950000 -13.9170000
  40.5390000 -32.9790000 -14.1350000  39.2060000 -34.0980000 -14.3450000
  41.1480000 -34.9920000 -14.6250000  41.2140000 -34.7180000 -15.6800000
  40.7060000 -35.9900000 -14.5860000  42.5710000 -35.0430000 -14.0280000
  42.5280000 -35.3600000 -12.9840000  42.9960000 -34.0370000 -14.0400000
  43.5180000 -35.9900000 -14.7950000  43.5900000 -35.6600000 -15.8340000
  44.5230000 -35.9350000 -14.3700000  43.0640000 -37.4340000 -14.7660000
  42.5920000 -37.9830000 -13.7820000  43.2800000 -38.0500000 -15.9470000
  42.5820000 -39.2980000 -16.2420000  42.5250000 -39.9270000 -15.3490000
  43.1660000 -39.8380000 -16.9920000  41.1560000 -39.0580000 -16.8210000
  40.7170000 -40.0410000 -17.0100000  41.1840000 -38.2570000 -18.1540000
  40.2030000 -38.3020000 -18.6340000  41.9080000 -38.7300000 -18.8230000
  41.5600000 -36.8630000 -17.9600000  41.8580000 -35.8780000 -19.2070000
  40.3980000 -35.3170000 -19.5810000  39.6890000 -34.4370000 -18.6880000
  39.2300000 -33.6330000 -19.2700000  40.3830000 -33.9840000 -17.9750000
  38.6100000 -35.2450000 -17.9290000  38.1790000 -34.6100000 -17.1540000
  39.0860000 -36.0990000 -17.4460000  37.4380000 -35.7850000 -18.7200000
  37.8360000 -36.8590000 -19.6750000  38.5700000 -36.4500000 -20.3700000
  36.9460000 -37.1880000 -20.2140000  38.2650000 -37.6880000 -19.1100000
  36.4560000 -36.3790000 -17.7750000  36.1690000 -35.6230000 -17.0420000
  36.9160000 -37.2380000 -17.2830000  35.5870000 -36.6990000 -18.3520000
  36.7450000 -34.6980000 -19.4750000  36.4830000 -33.8980000 -18.7810000
  35.8470000 -35.1160000 -19.9320000  37.4190000 -34.3280000 -20.2490000
  42.7000000 -34.7420000 -18.7400000  42.3390000 -36.6850000 -20.3640000
  40.3550000 -38.3640000 -15.8240000  39.0160000 -38.4360000 -15.8720000
  38.3930000 -38.9770000 -16.7700000  38.3770000 -37.7280000 -14.6990000
  39.0160000 -37.8490000 -13.8220000  38.3510000 -36.6590000 -14.9220000
  36.9460000 -38.2160000 -14.3750000  36.5240000 -37.5720000 -13.6020000
  36.3180000 -38.0870000 -15.2590000  36.8530000 -39.6870000 -13.9130000
  35.8010000 -39.9340000 -13.7520000  37.2090000 -40.3360000 -14.7160000
  37.6380000 -40.0240000 -12.6290000  37.5220000 -41.0910000 -12.4250000
  38.7030000 -39.8470000 -12.7910000  37.1640000 -39.2310000 -11.3960000
  37.3090000 -38.1630000 -11.5710000  36.0950000 -39.4010000 -11.2500000
  37.9300000 -39.6320000 -10.1200000  37.7860000 -40.6970000  -9.9230000
  38.9970000 -39.4750000 -10.2860000  37.5010000 -38.8210000  -8.8830000
  38.1970000 -39.0350000  -8.0700000  37.5960000 -37.7550000  -9.1040000
  36.0970000 -39.1640000  -8.4220000  36.0150000 -40.1050000  -7.8840000
  35.0160000 -38.4000000  -8.5500000  34.0730000 -38.7490000  -8.1360000
  34.9260000 -37.0870000  -9.3050000  35.7200000 -37.0050000 -10.0500000
  33.9800000 -37.0650000  -9.8490000  34.9680000 -35.8630000  -8.3710000
  34.7610000 -34.9650000  -8.9570000  34.1720000 -35.9570000  -7.6300000
  36.3320000 -35.6980000  -7.6710000  36.5530000 -36.5930000  -7.0850000
  37.1050000 -35.6180000  -8.4380000  36.4370000 -34.4650000  -6.7560000
  37.4160000 -34.4700000  -6.2730000  36.3960000 -33.5630000  -7.3710000
  35.3480000 -34.3710000  -5.6720000  35.6020000 -33.5330000  -5.0200000
  34.3920000 -34.1350000  -6.1460000  35.1770000 -35.6270000  -4.7980000
  34.9380000 -36.4880000  -5.4260000  36.1130000 -35.8430000  -4.2800000
  34.0470000 -35.4350000  -3.7700000  34.2970000 -34.6090000  -3.1010000
  33.1250000 -35.1650000  -4.2900000  33.7950000 -36.7040000  -2.9420000
  33.0030000 -36.5270000  -2.2100000  34.7000000 -37.0030000  -2.4100000
  33.4890000 -37.5270000  -3.5910000   3.6870000  47.2710000  -0.6950000
   4.5740000  47.8160000  -0.3650000   3.9830000  46.2460000  -0.9280000
   2.9650000  47.2570000   0.1240000   3.0860000  47.9440000  -1.9350000
   3.8310000  47.9180000  -2.7330000   2.8840000  48.9930000  -1.7070000
   1.7910000  47.2620000  -2.4140000   1.0910000  47.1950000  -1.5780000
   2.0150000  46.2420000  -2.7320000   1.1080000  48.0240000  -3.5660000
   0.8290000  49.0190000  -3.2150000   0.1860000  47.5050000  -3.8350000
   1.9870000  48.1570000  -4.8240000   2.2290000  47.1640000  -5.2090000
   2.9250000  48.6500000  -4.5600000   1.2880000  48.9830000  -5.9180000
   1.0840000  49.9810000  -5.5250000   0.3250000  48.5270000  -6.1570000
   2.1060000  49.1200000  -7.2150000   1.5780000  49.8090000  -7.8780000
   2.1460000  48.1540000  -7.7220000   3.5460000  49.6300000  -6.9950000
   4.1440000  48.8470000  -6.5250000   3.5320000  50.4850000  -6.3160000
   4.2000000  50.0420000  -8.3240000   3.6000000  50.8370000  -8.7710000
   4.1750000  49.1890000  -9.0060000   5.6530000  50.5360000  -8.1650000
   6.2890000  49.7060000  -7.8470000   5.6870000  51.2900000  -7.3760000
   6.2200000  51.1580000  -9.4580000   7.2160000  51.5570000  -9.2550000
   5.5900000  52.0050000  -9.7390000   6.3110000  50.1760000 -10.6440000
   5.3720000  49.6280000 -10.7480000   7.0950000  49.4410000 -10.4490000
   6.5980000  50.9030000 -11.9710000   7.5850000  51.3680000 -11.9190000
   5.8630000  51.6980000 -12.1080000   6.5480000  49.9580000 -13.1850000
   5.5990000  49.4170000 -13.1810000   7.3470000  49.2200000 -13.0970000
   6.6870000  50.7190000 -14.5200000   7.6280000  51.2730000 -14.5400000
   5.8720000  51.4390000 -14.6250000   6.6550000  49.7650000 -15.6860000
   7.6390000  49.1750000 -16.0960000   5.4250000  49.6320000 -16.2220000
   5.1730000  48.4890000 -17.0930000   5.0490000  47.5970000 -16.4730000
   6.0260000  48.3240000 -17.7570000   3.9100000  48.7070000 -17.9710000
   3.6270000  47.7540000 -18.4270000   4.1910000  49.7110000 -19.1060000
   5.1270000  49.4430000 -19.6030000   4.2810000  50.7200000 -18.6970000
   3.1170000  49.6610000 -20.0840000   3.1940000  50.4910000 -21.4650000
   2.7260000  51.9470000 -21.0010000   1.3340000  52.2130000 -20.7530000
   0.8810000  51.3590000 -20.2430000   0.8240000  52.3560000 -21.7090000
   1.2060000  53.4830000 -19.8830000   0.1460000  53.6840000 -19.7240000
   1.6340000  54.3310000 -20.4200000   1.8440000  53.4810000 -18.5120000
   3.3260000  53.6490000 -18.6010000   3.7330000  52.8250000 -19.1890000
   3.7440000  53.6430000 -17.5940000   3.5380000  54.5980000 -19.0970000
   1.3060000  54.6360000 -17.7330000   0.2260000  54.5170000 -17.6280000
   1.5330000  55.5560000 -18.2740000   1.7810000  54.6500000 -16.7510000
   1.5360000  52.2250000 -17.7570000   0.4530000  52.1070000 -17.7020000
   1.9610000  52.3120000 -16.7560000   1.9860000  51.3790000 -18.2780000
   4.6140000  50.5740000 -21.9060000   2.1830000  49.9380000 -22.4060000
   2.7940000  49.2200000 -17.1900000   2.1880000  48.4130000 -16.3020000
   2.4900000  47.2480000 -16.1160000   1.0590000  49.1120000 -15.5840000
   0.4090000  49.5640000 -16.3360000   0.4700000  48.3740000 -15.0360000
   1.5580000  50.2130000 -14.6230000   2.2070000  50.9010000 -15.1690000
   0.6990000  50.7910000 -14.2770000   2.3210000  49.6680000 -13.4000000
   1.6700000  49.0120000 -12.8180000   3.1620000  49.0650000 -13.7480000
   2.8720000  50.7880000 -12.4960000   3.5880000  50.3420000 -11.8020000
   3.4230000  51.5040000 -13.1090000   1.8050000  51.5290000 -11.6650000
   1.0240000  51.9270000 -12.3160000   1.3360000  50.8210000 -10.9790000
   2.4330000  52.6870000 -10.8620000   3.3310000  52.3270000 -10.3550000
   2.7490000  53.4710000 -11.5530000   1.4800000  53.2840000  -9.8120000
   0.5960000  53.6790000 -10.3160000   1.1420000  52.4870000  -9.1460000
   2.1620000  54.4030000  -9.0470000   2.3670000  55.2920000  -9.6380000
   2.5400000  54.3780000  -7.7710000   3.0360000  55.2510000  -7.3530000
   2.3200000  53.2430000  -6.7900000   1.4990000  52.5950000  -7.1030000
   3.2270000  52.6370000  -6.7440000   2.0330000  53.7750000  -5.3740000
   2.9100000  54.3120000  -5.0090000   1.2070000  54.4890000  -5.4110000
   1.6690000  52.6500000  -4.3860000   0.7480000  52.1660000  -4.7190000
   2.4560000  51.8940000  -4.3870000   1.4710000  53.1830000  -2.9550000
   2.4040000  53.6310000  -2.6090000   0.7140000  53.9700000  -2.9680000
   1.0350000  52.0830000  -1.9680000   0.0830000  51.6600000  -2.2950000
   1.7730000  51.2790000  -1.9780000   0.8870000  52.6340000  -0.5350000
   1.8520000  53.0160000  -0.1970000   0.1950000  53.4790000  -0.5500000
   0.3700000  51.5990000   0.4840000   0.2670000  52.0890000   1.4550000
  -0.6260000  51.2630000   0.1870000   1.2890000  50.3750000   0.6440000
   0.9290000  49.7390000   1.4550000   2.3090000  50.6880000   0.8760000
   1.3020000  49.7820000  -0.2720000  13.3770000  10.7590000  -1.7660000
  13.4990000  11.3910000  -0.8840000  12.3640000  10.3510000  -1.7590000
  13.4980000  11.3790000  -2.6570000  14.4130000   9.6250000  -1.7520000
  14.2860000   9.0450000  -0.8350000  15.4160000  10.0550000  -1.7320000
  14.2770000   8.6960000  -2.9720000  14.4920000   9.2640000  -3.8790000
  13.2450000   8.3440000  -3.0400000  15.2150000   7.4760000  -2.8860000
  15.0100000   6.9480000  -1.9520000  16.2540000   7.8090000  -2.8390000
  15.0280000   6.4850000  -4.0530000  13.9770000   6.1930000  -4.0990000
  15.5910000   5.5760000  -3.8320000  15.4590000   7.0070000  -5.4410000
  14.8720000   7.8900000  -5.7000000  15.2080000   6.2370000  -6.1730000
  16.9640000   7.3470000  -5.5400000  17.5620000   6.5170000  -5.1580000
  17.1620000   8.2020000  -4.8900000  17.4440000   7.7120000  -6.9650000
  18.2310000   8.4640000  -6.8730000  16.6330000   8.1880000  -7.5200000
  18.0300000   6.5400000  -7.7830000  18.9310000   6.1870000  -7.2760000
  18.3490000   6.9140000  -8.7570000  17.0950000   5.3320000  -7.9860000
  16.7910000   4.9510000  -7.0090000  17.6650000   4.5300000  -8.4600000
  15.8340000   5.6020000  -8.8350000  15.3450000   6.5220000  -8.5070000
  15.1280000   4.7890000  -8.6520000  16.1360000   5.6780000 -10.3440000
  16.7220000   4.8020000 -10.6320000  16.7520000   6.5570000 -10.5410000
  14.8770000   5.7400000 -11.2340000  15.1960000   5.8950000 -12.2670000
  14.2780000   6.6070000 -10.9490000  14.0060000   4.4650000 -11.1690000
  13.5820000   4.3570000 -10.1680000  14.6420000   3.5960000 -11.3480000
  12.8580000   4.4460000 -12.2000000  12.3630000   3.4730000 -12.1780000
  13.2620000   4.5820000 -13.2060000  11.8310000   5.5180000 -11.9260000
  10.8740000   5.3650000 -11.1860000  12.0970000   6.6570000 -12.5830000
  11.2700000   7.8320000 -12.3550000  11.0840000   7.9330000 -11.2820000
  10.3120000   7.7100000 -12.8660000  11.9830000   9.1290000 -12.8380000
  11.3800000   9.9710000 -12.4880000  12.1050000   9.2310000 -14.3890000
  12.6060000  10.1620000 -14.6650000  11.0970000   9.2640000 -14.8100000
  12.7990000   8.1040000 -14.9910000  14.3050000   8.2360000 -15.5770000
  14.0240000   8.8600000 -17.0330000  13.5650000   8.0270000 -18.1080000
  12.6020000   7.5900000 -17.8310000  14.2800000   7.2180000 -18.2800000
  13.4090000   8.8940000 -19.3800000  12.6660000   9.6710000 -19.1950000
  13.0410000   8.2580000 -20.1870000  14.6340000   9.5980000 -19.9240000
  15.0060000  10.7750000 -19.0830000  14.1540000  11.4550000 -19.0350000
  15.8680000  11.2710000 -19.5300000  15.2520000  10.4160000 -18.0820000
  15.8060000   8.6750000 -20.0120000  15.5300000   7.8110000 -20.6190000
  16.0740000   8.3650000 -19.0000000  16.6380000   9.2110000 -20.4700000
  14.3300000  10.1000000 -21.2970000  14.0900000   9.2500000 -21.9380000
  15.2080000  10.6230000 -21.6800000  13.4810000  10.7830000 -21.2400000
  15.0760000   9.2570000 -14.8110000  14.8820000   6.8730000 -15.7560000
  13.2840000   9.1990000 -12.1950000  13.9160000  10.3830000 -12.0920000
  13.4540000  11.4470000 -12.4790000  15.2310000  10.2620000 -11.3520000
  15.4920000   9.2070000 -11.2470000  16.0140000  10.7280000 -11.9540000
  15.1810000  10.9310000  -9.9610000  16.0950000  10.6840000  -9.4180000
  15.1750000  12.0140000 -10.0960000  13.9580000  10.5450000  -9.1000000
  14.0120000  11.0790000  -8.1490000  13.0510000  10.8910000  -9.6010000
  13.8340000   9.0360000  -8.8180000  13.9390000   8.4730000  -9.7480000
  14.6400000   8.7250000  -8.1500000  12.4770000   8.6850000  -8.1860000
  12.3860000   9.1820000  -7.2180000  11.6800000   9.0680000  -8.8270000
  12.2850000   7.1680000  -8.0050000  12.4630000   6.6630000  -8.9570000
  13.0160000   6.7890000  -7.2880000  10.8620000   6.8420000  -7.5180000
  10.6810000   7.3660000  -6.5770000  10.1520000   7.2190000  -8.2560000
  10.6650000   5.3490000  -7.3600000  11.2270000   4.7350000  -8.0590000
   9.9250000   4.7580000  -6.4280000   9.8880000   3.6720000  -6.3960000
   9.0460000   5.4520000  -5.4060000   9.0050000   6.5310000  -5.5650000
   8.0230000   5.0840000  -5.5150000   9.5050000   5.1580000  -3.9670000
   8.7290000   5.5150000  -3.2870000   9.5920000   4.0790000  -3.8270000
  10.8420000   5.8410000  -3.6120000  11.6060000   5.5450000  -4.3330000
  10.7200000   6.9230000  -3.7000000  11.3500000   5.5090000  -2.1950000
  11.6480000   4.4590000  -2.1560000  12.2430000   6.1070000  -2.0030000
  10.3130000   5.7790000  -1.0860000   9.9310000   6.7970000  -1.1870000
   9.4710000   5.0940000  -1.2030000  10.9020000   5.5980000   0.3240000
  11.3080000   4.5890000   0.4180000  11.7250000   6.3030000   0.4580000
   9.8550000   5.8290000   1.4290000   9.4390000   6.8340000   1.3290000
   9.0330000   5.1200000   1.3070000  10.4530000   5.6700000   2.8360000
   9.6910000   5.8700000   3.5920000  11.2770000   6.3710000   2.9830000
  10.8290000   4.6550000   2.9810000 -17.6970000  51.5060000   3.3310000
 -17.8220000  52.0330000   4.2790000 -17.8890000  50.4440000   3.4990000
 -18.4370000  51.8870000   2.6240000 -16.2740000  51.7190000   2.7890000
 -15.5520000  51.3490000   3.5200000 -16.1060000  52.7920000   2.6750000
 -16.0350000  51.0160000   1.4410000 -16.8070000  51.3330000   0.7360000
 -16.1320000  49.9370000   1.5760000 -14.6580000  51.3280000   0.8300000
 -13.8680000  51.0480000   1.5290000 -14.5780000  52.4030000   0.6520000
 -14.4450000  50.6010000  -0.5060000 -15.2350000  50.8980000  -1.1990000
 -14.5310000  49.5250000  -0.3410000 -13.0750000  50.9290000  -1.1280000
 -12.2860000  50.5660000  -0.4650000 -12.9630000  52.0130000  -1.1950000
 -12.8700000  50.3290000  -2.5320000 -11.8520000  50.5630000  -2.8520000
 -13.5460000  50.8250000  -3.2320000 -13.0970000  48.8050000  -2.5960000
 -14.1330000  48.5790000  -2.3340000 -12.4620000  48.3200000  -1.8520000
 -12.8060000  48.1830000  -3.9760000 -13.4790000  48.6070000  -4.7240000
 -13.0310000  47.1150000  -3.9180000 -11.3390000  48.3500000  -4.4180000
 -10.9690000  47.3960000  -4.7980000 -10.7270000  48.5890000  -3.5450000
 -11.1230000  49.4310000  -5.4960000 -10.0590000  49.6730000  -5.5340000
 -11.6500000  50.3480000  -5.2240000 -11.5630000  48.9690000  -6.8970000
 -12.6510000  48.8880000  -6.9380000 -11.1510000  47.9770000  -7.0920000
 -11.0670000  49.9340000  -7.9880000  -9.9840000  50.0410000  -7.8990000
 -11.5040000  50.9220000  -7.8280000 -11.4010000  49.4360000  -9.4050000
 -12.4820000  49.3270000  -9.5150000 -10.9530000  48.4500000  -9.5460000
 -10.8680000  50.4050000 -10.4790000  -9.8070000  50.6010000 -10.3120000
 -11.3910000  51.3600000 -10.3950000 -11.0300000  49.8690000 -11.8830000
 -10.8530000  48.7050000 -12.2020000 -11.3730000  50.8400000 -12.7550000
 -11.5090000  50.5050000 -14.1700000 -10.6620000  49.8950000 -14.4950000
 -11.4970000  51.4380000 -14.7410000 -12.8460000  49.7710000 -14.4490000
 -12.8440000  48.8020000 -13.9430000 -13.0240000  49.5180000 -15.9620000
 -12.1520000  48.9820000 -16.3460000 -13.1120000  50.4740000 -16.4830000
 -14.2150000  48.7170000 -16.1950000 -14.6590000  48.2460000 -17.6760000
 -15.5120000  49.4880000 -18.2390000 -14.8850000  50.5600000 -18.9680000
 -14.3740000  50.1610000 -19.8480000 -14.1450000  51.0470000 -18.3270000
 -15.9600000  51.5920000 -19.3840000 -15.4600000  52.4310000 -19.8700000
 -16.4610000  51.9680000 -18.4910000 -17.0520000  51.1550000 -20.3340000
 -18.0230000  50.2350000 -19.6710000 -17.4880000  49.3360000 -19.3610000
 -18.8110000  49.9830000 -20.3820000 -18.4410000  50.7410000 -18.7990000
 -17.8050000  52.3630000 -20.7820000 -17.1160000  53.0330000 -21.2990000
 -18.2270000  52.8560000 -19.9050000 -18.6010000  52.0470000 -21.4580000
 -16.4900000  50.4820000 -21.5430000 -15.7760000  51.1570000 -22.0190000
 -17.3090000  50.2540000 -22.2260000 -15.9960000  49.5620000 -21.2280000
 -13.4390000  48.0800000 -18.5120000 -15.5840000  47.0900000 -17.5310000
 -13.9410000  50.6190000 -13.9960000 -14.6360000  50.2750000 -12.8940000
 -14.4640000  49.2420000 -12.2680000 -15.6370000  51.3530000 -12.5320000
 -15.0950000  52.2870000 -12.3670000 -16.2730000  51.5190000 -13.4040000
 -16.5410000  51.0450000 -11.3150000 -17.2480000  51.8710000 -11.2110000
 -17.1370000  50.1550000 -11.5280000 -15.8320000  50.8530000  -9.9550000
 -16.5970000  50.8330000  -9.1770000 -15.3390000  49.8800000  -9.9320000
 -14.7940000  51.9440000  -9.6280000 -13.9790000  51.8860000 -10.3520000
 -15.2540000  52.9290000  -9.7320000 -14.1930000  51.8020000  -8.2160000
 -13.9060000  50.7620000  -8.0470000 -13.2850000  52.4060000  -8.1610000
 -15.1500000  52.2620000  -7.1020000 -15.3810000  53.3180000  -7.2560000
 -16.0870000  51.7060000  -7.1680000 -14.5640000  52.0820000  -5.6910000
 -14.3880000  51.0200000  -5.5100000 -13.5940000  52.5810000  -5.6390000
 -15.4900000  52.6840000  -4.6520000 -15.4570000  53.7690000  -4.5910000
 -16.3280000  52.0210000  -3.8600000 -16.9530000  52.5780000  -3.1650000
 -16.4750000  50.5160000  -3.7780000 -15.5290000  50.0340000  -4.0340000
 -16.7060000  50.2290000  -2.7500000 -17.5900000  49.9970000  -4.7020000
 -18.5270000  50.5000000  -4.4510000 -17.3510000  50.2560000  -5.7360000
 -17.7980000  48.4720000  -4.5990000 -18.1350000  48.2260000  -3.5900000
 -18.5950000  48.1850000  -5.2880000 -16.5270000  47.6610000  -4.9320000
 -16.1500000  47.9810000  -5.9060000 -15.7470000  47.8800000  -4.2000000
 -16.7480000  46.1370000  -4.9730000 -17.4640000  45.9040000  -5.7640000
 -15.8060000  45.6600000  -5.2540000 -17.2410000  45.5100000  -3.6530000
 -18.2400000  45.8830000  -3.4150000 -17.3320000  44.4320000  -3.8010000
 -16.3170000  45.7740000  -2.4510000 -15.2900000  45.5070000  -2.7090000
 -16.3290000  46.8370000  -2.2020000 -16.7570000  44.9660000  -1.2200000
 -16.1400000  45.2230000  -0.3570000 -16.6560000  43.8960000  -1.4100000
 -17.8000000  45.1800000  -0.9750000 -34.1120000  40.9290000   2.4850000
 -35.1570000  41.0410000   2.1910000 -33.8980000  41.6610000   3.2670000
 -33.9720000  39.9280000   2.8980000 -33.1780000  41.1470000   1.2840000
 -32.1450000  41.1730000   1.6390000 -33.3910000  42.1260000   0.8500000
 -33.2980000  40.0690000   0.1890000 -33.0510000  39.0980000   0.6230000
 -32.5420000  40.2710000  -0.5720000 -34.6960000  40.0060000  -0.4650000
 -34.9320000  40.9620000  -0.9360000 -35.4370000  39.8520000   0.3220000
 -34.8790000  38.8620000  -1.4870000 -35.9330000  38.5770000  -1.4660000
 -34.3160000  37.9830000  -1.1670000 -34.5390000  39.2070000  -2.9530000
 -35.0320000  40.1440000  -3.2210000 -34.9680000  38.4290000  -3.5880000
 -33.0360000  39.3260000  -3.2670000 -32.5240000  38.3980000  -3.0010000
 -32.6070000  40.1250000  -2.6590000 -32.7530000  39.6670000  -4.7420000
 -31.6890000  39.8900000  -4.8440000 -33.3030000  40.5790000  -4.9870000
 -33.1260000  38.5670000  -5.7570000 -34.2040000  38.3940000  -5.7400000
 -32.6420000  37.6330000  -5.4640000 -32.6910000  38.9210000  -7.1970000
 -32.8990000  38.0700000  -7.8480000 -31.6100000  39.0780000  -7.2070000
 -33.4020000  40.1690000  -7.7630000 -33.2170000  41.0260000  -7.1120000
 -34.4790000  39.9930000  -7.7590000 -32.9700000  40.5590000  -9.1910000
 -33.5610000  41.4260000  -9.4950000 -33.2090000  39.7490000  -9.8830000
 -31.4730000  40.9120000  -9.3130000 -30.8740000  40.0000000  -9.2520000
 -31.1840000  41.5500000  -8.4750000 -31.1630000  41.6480000 -10.6300000
 -31.7490000  42.5680000 -10.6620000 -31.4780000  41.0330000 -11.4760000
 -29.6700000  42.0050000 -10.7850000 -29.0870000  41.1010000 -10.9770000
 -29.3030000  42.4550000  -9.8610000 -29.4580000  42.9860000 -11.9140000
 -29.0140000  44.1100000 -11.7520000 -29.8550000  42.4950000 -13.1080000
 -29.8230000  43.3730000 -14.2730000 -28.8320000  43.3320000 -14.7320000
 -30.0380000  44.4030000 -13.9770000 -30.9090000  42.9310000 -15.2800000
 -30.7580000  41.8700000 -15.4970000 -30.8210000  43.7520000 -16.5910000
 -29.9790000  43.3950000 -17.1900000 -30.6580000  44.8070000 -16.3530000
 -32.0530000  43.6440000 -17.3620000 -32.1940000  44.2790000 -18.8420000
 -32.3650000  42.9860000 -19.7820000 -31.3280000  41.9920000 -19.9050000
 -30.3480000  42.4580000 -19.7770000 -31.3710000  41.5640000 -20.9090000
 -31.5400000  40.8790000 -18.8460000 -31.5220000  41.3200000 -17.8490000
 -30.7120000  40.1720000 -18.9210000 -32.8020000  40.0480000 -18.9110000
 -34.0140000  40.8500000 -18.5710000 -33.8590000  41.3070000 -17.5920000
 -34.8830000  40.1910000 -18.5550000 -34.1380000  41.6250000 -19.3290000
 -32.9850000  39.4360000 -20.2620000 -32.0970000  38.8510000 -20.5060000
 -33.1270000  40.2380000 -20.9880000 -33.8670000  38.7940000 -20.2360000
 -32.6970000  38.9460000 -17.9100000 -31.8290000  38.3320000 -18.1560000
 -33.6080000  38.3470000 -17.9550000 -32.5900000  39.3920000 -16.9200000
 -33.4670000  45.0480000 -18.8940000 -30.9290000  44.9710000 -19.2150000
 -32.2040000  43.1640000 -14.6650000 -33.1820000  42.2500000 -14.8090000
 -33.0450000  41.1580000 -15.3360000 -34.4840000  42.7350000 -14.2220000
 -34.7080000  43.7160000 -14.6480000 -35.2900000  42.0540000 -14.5060000
 -34.3980000  42.8460000 -12.6880000 -34.2710000  41.8510000 -12.2560000
 -33.5110000  43.4310000 -12.4340000 -35.6430000  43.5220000 -12.0810000
 -35.7520000  44.5220000 -12.5080000 -36.5330000  42.9550000 -12.3630000
 -35.5900000  43.6370000 -10.5450000 -36.5080000  44.1140000 -10.1950000
 -35.5560000  42.6370000 -10.1090000 -34.3810000  44.4500000 -10.0450000
 -33.4570000  43.9680000 -10.3700000 -34.4060000  45.4460000 -10.4930000
 -34.3500000  44.5810000  -8.5140000 -35.2650000  45.0740000  -8.1780000
 -34.3380000  43.5870000  -8.0610000 -33.1300000  45.3810000  -8.0210000
 -33.0920000  46.3400000  -8.5420000 -33.2620000  45.5980000  -6.9590000
 -31.8310000  44.6450000  -8.2820000 -31.5740000  44.5140000  -9.3300000
 -31.0230000  44.1560000  -7.3490000 -30.1240000  43.6230000  -7.6480000
 -31.2510000  44.2630000  -5.8580000 -30.2990000  44.1560000  -5.3330000
 -31.6460000  45.2480000  -5.6000000 -32.2260000  43.1660000  -5.3990000
 -33.0950000  43.1620000  -6.0590000 -31.7380000  42.1950000  -5.5000000
 -32.7320000  43.3500000  -3.9600000 -33.1840000  44.3410000  -3.8790000
 -33.5200000  42.6190000  -3.7700000 -31.6390000  43.1940000  -2.8890000
 -31.1680000  42.2150000  -2.9970000 -30.8620000  43.9490000  -3.0310000
 -32.2160000  43.3200000  -1.4690000 -33.0030000  42.5740000  -1.3400000
 -31.4290000  43.0920000  -0.7460000 -32.7900000  44.7180000  -1.1710000
 -32.0220000  45.4700000  -1.3640000 -33.6280000  44.9280000  -1.8390000
 -33.2820000  44.8480000   0.2790000 -34.1110000  44.1550000   0.4420000
 -32.4790000  44.5760000   0.9680000 -33.7610000  46.2720000   0.5870000
 -34.1700000  46.3270000   1.5980000 -34.5380000  46.5590000  -0.1250000
 -32.9380000  46.9850000   0.5060000 -52.0490000 -11.0480000   2.1010000
 -52.2230000 -11.0300000   3.1790000 -51.7520000 -12.0590000   1.8150000
 -52.9890000 -10.8070000   1.6000000 -50.9550000 -10.0330000   1.7260000
 -50.0810000 -10.2060000   2.3580000 -51.3130000  -9.0260000   1.9460000
 -50.5250000 -10.1100000   0.2480000 -50.0970000 -11.0960000   0.0520000
 -49.7370000  -9.3740000   0.0770000 -51.6850000  -9.8440000  -0.7320000
 -52.1900000  -8.9220000  -0.4380000 -52.4170000 -10.6510000  -0.6610000
 -51.2410000  -9.7020000  -2.2010000 -50.5220000  -8.8830000  -2.2780000
 -52.1160000  -9.4190000  -2.7890000 -50.6180000 -10.9830000  -2.7930000
 -51.3320000 -11.8060000  -2.7120000 -49.7410000 -11.2600000  -2.2050000
 -50.1850000 -10.8300000  -4.2660000 -49.6570000 -11.7370000  -4.5680000
 -49.4750000 -10.0040000  -4.3470000 -51.3570000 -10.5990000  -5.2410000
 -51.9110000  -9.7040000  -4.9530000 -52.0410000 -11.4470000  -5.1680000
 -50.8790000 -10.4370000  -6.6980000 -50.3450000 -11.3390000  -7.0050000
 -50.1680000  -9.6100000  -6.7470000 -52.0210000 -10.1630000  -7.6970000
 -51.5870000 -10.0000000  -8.6860000 -52.5320000  -9.2400000  -7.4130000
 -53.0470000 -11.3090000  -7.7790000 -53.5320000 -11.4320000  -6.8090000
 -52.5200000 -12.2390000  -8.0050000 -54.1350000 -11.0520000  -8.8400000
 -53.6670000 -10.9210000  -9.8190000 -54.6380000 -10.1120000  -8.6020000
 -55.1970000 -12.1710000  -8.9060000 -55.9920000 -11.8590000  -9.5880000
 -55.6540000 -12.2710000  -7.9190000 -54.6710000 -13.5480000  -9.3680000
 -55.4470000 -14.2980000  -9.2020000 -53.8080000 -13.8400000  -8.7660000
 -54.3000000 -13.5550000 -10.8630000 -53.6410000 -12.7110000 -11.0770000
 -55.1980000 -13.4180000 -11.4700000 -53.5940000 -14.8100000 -11.3220000
 -53.5970000 -15.8850000 -10.7480000 -52.9320000 -14.5610000 -12.4610000
 -52.0180000 -15.5180000 -13.0540000 -52.5860000 -16.2610000 -13.6200000
 -51.4290000 -16.0160000 -12.2800000 -51.0730000 -14.7160000 -13.9870000
 -51.6760000 -14.0520000 -14.6120000 -50.2410000 -15.6300000 -14.9160000
 -50.8900000 -16.3170000 -15.4650000 -49.5440000 -16.2130000 -14.3100000
 -49.4810000 -14.8170000 -15.8560000 -50.1050000 -14.3210000 -17.2690000
 -49.7240000 -15.5270000 -18.2570000 -48.3500000 -15.7620000 -18.6150000
 -47.8170000 -16.1310000 -17.7350000 -47.8830000 -14.8280000 -18.9380000
 -48.2900000 -16.8110000 -19.7460000 -48.8060000 -17.7130000 -19.4110000
 -47.2440000 -17.0640000 -19.9270000 -48.8810000 -16.4630000 -21.0910000
 -48.3240000 -15.1790000 -21.6150000 -48.6320000 -14.3720000 -20.9490000
 -48.7260000 -15.0100000 -22.6160000 -47.2370000 -15.2550000 -21.6520000
 -48.5400000 -17.5500000 -22.0570000 -48.9770000 -18.4840000 -21.6990000
 -47.4540000 -17.6350000 -22.1240000 -48.9580000 -17.2920000 -23.0310000
 -50.3700000 -16.3610000 -21.0330000 -50.7690000 -17.3000000 -20.6460000
 -50.7500000 -16.1660000 -22.0370000 -50.6320000 -15.5420000 -20.3620000
 -51.5910000 -14.2810000 -17.1690000 -49.3890000 -13.0940000 -17.7150000
 -50.1430000 -13.9360000 -13.1810000 -50.4940000 -12.6930000 -12.7920000
 -51.5420000 -12.1380000 -13.0700000 -49.4370000 -12.0320000 -11.9390000
 -48.5580000 -11.8360000 -12.5560000 -49.8160000 -11.0710000 -11.5850000
 -49.0270000 -12.8910000 -10.7280000 -48.4750000 -13.7630000 -11.0840000
 -48.3400000 -12.3010000 -10.1180000 -50.2090000 -13.3560000  -9.8540000
 -50.8340000 -12.4940000  -9.6120000 -50.8290000 -14.0550000 -10.4190000
 -49.7630000 -14.0260000  -8.5380000 -49.2980000 -13.2680000  -7.9040000
 -50.6470000 -14.3770000  -8.0020000 -48.7640000 -15.1930000  -8.7030000
 -47.8380000 -14.8170000  -9.1440000 -48.5000000 -15.5620000  -7.7090000
 -49.2600000 -16.3800000  -9.5510000 -49.4750000 -16.0500000 -10.5700000
 -48.4530000 -17.1130000  -9.6160000 -50.5030000 -17.0620000  -8.9550000
 -50.3290000 -17.2350000  -7.8910000 -51.3550000 -16.3840000  -9.0400000
 -50.8160000 -18.3540000  -9.6860000 -50.9300000 -18.2580000 -10.7630000
 -50.9200000 -19.5550000  -9.1250000 -51.1270000 -20.4210000  -9.7500000
 -50.8080000 -19.8420000  -7.6420000 -51.1610000 -18.9850000  -7.0630000
 -51.4590000 -20.6800000  -7.3830000 -49.3580000 -20.1910000  -7.2590000
 -49.0920000 -21.1360000  -7.7360000 -48.6850000 -19.4290000  -7.6590000
 -49.1200000 -20.3160000  -5.7410000 -49.7920000 -21.0670000  -5.3220000
 -48.0980000 -20.6670000  -5.5820000 -49.3030000 -18.9790000  -4.9960000
 -48.7080000 -18.2110000  -5.4960000 -50.3480000 -18.6670000  -5.0470000
 -48.8770000 -19.0560000  -3.5190000 -49.4790000 -19.8110000  -3.0100000
 -47.8330000 -19.3690000  -3.4590000 -49.0450000 -17.6930000  -2.8190000
 -48.5440000 -16.9260000  -3.4120000 -50.1050000 -17.4320000  -2.7870000
 -48.4700000 -17.6510000  -1.3910000 -47.3910000 -17.8140000  -1.4350000
 -48.6280000 -16.6510000  -0.9790000 -49.1000000 -18.6810000  -0.4400000
 -48.6850000 -18.5690000   0.5640000 -48.8990000 -19.6990000  -0.7790000
 -50.1820000 -18.5390000  -0.3880000 -22.5610000   7.9820000  -1.3970000
 -22.1580000   7.9650000  -0.3820000 -23.6500000   7.9300000  -1.3380000
 -22.2840000   8.9320000  -1.8580000 -22.0100000   6.7950000  -2.2050000
 -22.2290000   5.8750000  -1.6590000 -20.9240000   6.8790000  -2.2770000
 -22.6130000   6.6840000  -3.6190000 -23.6970000   6.5860000  -3.5360000
 -22.2400000   5.7650000  -4.0770000 -22.2770000   7.8830000  -4.5300000
 -21.1950000   7.9440000  -4.6690000 -22.5910000   8.8080000  -4.0420000
 -22.9690000   7.8230000  -5.9060000 -22.7690000   8.7630000  -6.4260000
 -24.0490000   7.7620000  -5.7550000 -22.5100000   6.6460000  -6.7910000
 -22.6390000   5.7090000  -6.2470000 -21.4450000   6.7490000  -7.0110000
 -23.2980000   6.5380000  -8.1110000 -24.3560000   6.3930000  -7.8830000
 -22.9620000   5.6450000  -8.6430000 -23.1400000   7.7570000  -9.0410000
 -22.0850000   7.8860000  -9.2920000 -23.4740000   8.6630000  -8.5310000
 -23.9590000   7.5870000 -10.3320000 -25.0160000   7.4990000 -10.0730000
 -23.6650000   6.6570000 -10.8240000 -23.7600000   8.7580000 -11.3140000
 -22.7000000   8.8230000 -11.5670000 -24.0360000   9.7000000 -10.8350000
 -24.5670000   8.5780000 -12.6130000 -24.4570000   7.5490000 -12.9620000
 -24.1480000   9.2280000 -13.3840000 -26.0600000   8.9160000 -12.4470000
 -26.1640000   9.9890000 -12.2720000 -26.4600000   8.4050000 -11.5690000
 -26.8830000   8.5140000 -13.6850000 -26.8300000   7.4310000 -13.8170000
 -26.4360000   8.9720000 -14.5700000 -28.3610000   8.9400000 -13.5670000
 -28.4230000  10.0190000 -13.4110000 -28.7870000   8.4700000 -12.6780000
 -29.2270000   8.5440000 -14.7850000 -30.2780000   8.7240000 -14.5460000
 -29.1240000   7.4740000 -14.9790000 -28.9120000   9.2970000 -16.0570000
 -28.0050000  10.0990000 -16.2000000 -29.7620000   8.9560000 -17.0500000
 -29.5700000   9.5680000 -18.3620000 -29.4270000  10.6460000 -18.2550000
 -30.4740000   9.4010000 -18.9530000 -28.3620000   8.9300000 -19.0970000
 -27.4350000   9.2150000 -18.5930000 -28.2830000   9.4040000 -20.5640000
 -28.2950000  10.4950000 -20.6180000 -29.1560000   9.0220000 -21.1000000
 -27.0860000   8.8780000 -21.2120000 -25.6780000   9.6760000 -21.2040000
 -25.0920000   9.4050000 -19.7270000 -24.3440000   8.2130000 -19.4070000
 -23.8510000   7.8310000 -20.3050000 -25.0120000   7.4380000 -19.0220000
 -23.2460000   8.5960000 -18.3870000 -22.7500000   9.4970000 -18.7500000
 -22.5040000   7.7980000 -18.3470000 -23.6420000   8.8740000 -16.9550000
 -24.0710000   7.6120000 -16.2770000 -24.9930000   7.2650000 -16.7460000
 -24.2540000   7.8200000 -15.2220000 -23.2850000   6.8630000 -16.3850000
 -22.4490000   9.4170000 -16.2350000 -22.1700000  10.3690000 -16.6900000
 -21.6270000   8.7060000 -16.3310000 -22.7020000   9.5670000 -15.1840000
 -24.7430000   9.8790000 -16.8490000 -24.4620000  10.7620000 -17.4250000
 -24.9020000  10.1310000 -15.8000000 -25.6480000   9.4380000 -17.2700000
 -24.7900000   9.0420000 -22.2160000 -25.9570000  11.1320000 -21.3270000
 -28.5320000   7.4850000 -19.1350000 -27.7820000   6.7230000 -18.3240000
 -27.0950000   7.1680000 -17.4250000 -27.9190000   5.2540000 -18.6520000
 -28.9830000   5.0260000 -18.7400000 -27.4750000   5.0680000 -19.6320000
 -27.2860000   4.3170000 -17.5980000 -27.6390000   4.6180000 -16.6090000
 -27.6450000   3.3000000 -17.7690000 -25.7410000   4.3000000 -17.6380000
 -25.4160000   3.8930000 -18.5980000 -25.3600000   5.3210000 -17.5860000
 -25.0830000   3.4840000 -16.5060000 -25.3180000   2.4250000 -16.6350000
 -24.0000000   3.5810000 -16.6070000 -25.4880000   3.9480000 -15.0900000
 -24.6070000   3.9250000 -14.4440000 -25.8230000   4.9870000 -15.1260000
 -26.5790000   3.0570000 -14.4580000 -27.3220000   2.7960000 -15.2140000
 -26.1240000   2.1220000 -14.1260000 -27.3160000   3.7080000 -13.2720000
 -27.8770000   4.5680000 -13.6430000 -28.0360000   2.9840000 -12.8850000
 -26.3780000   4.1260000 -12.1580000 -25.3950000   3.6620000 -12.1770000
 -26.6570000   5.0300000 -11.2240000 -25.9020000   5.2820000 -10.4840000
 -27.9910000   5.7320000 -11.0510000 -27.8600000   6.8120000 -11.1470000
 -28.6970000   5.4330000 -11.8280000 -28.6290000   5.4220000  -9.6840000
 -29.6400000   5.8330000  -9.6820000 -28.7310000   4.3390000  -9.5820000
 -27.8750000   5.9680000  -8.4530000 -28.3940000   5.6120000  -7.5600000
 -26.8670000   5.5490000  -8.4240000 -27.7910000   7.5090000  -8.4110000
 -27.2010000   7.8570000  -9.2610000 -28.7910000   7.9350000  -8.5160000
 -27.1440000   8.0470000  -7.1190000 -26.1970000   7.5310000  -6.9490000
 -26.9120000   9.1050000  -7.2590000 -28.0420000   7.9030000  -5.8730000
 -28.9560000   8.4810000  -6.0240000 -28.3310000   6.8590000  -5.7400000
 -27.3360000   8.3880000  -4.5930000 -26.4470000   7.7790000  -4.4190000
 -27.0040000   9.4200000  -4.7270000 -28.2500000   8.3080000  -3.3590000
 -27.7100000   8.6320000  -2.4670000 -28.5940000   7.2840000  -3.2030000
 -29.1220000   8.9530000  -3.4870000  48.9980000  19.4670000  -0.7580000
  48.8170000  19.8950000   0.2300000  49.8680000  19.9660000  -1.1900000
  49.2300000  18.4060000  -0.6400000  47.7700000  19.6560000  -1.6640000
  47.6080000  20.7250000  -1.8220000  46.8810000  19.2570000  -1.1710000
  47.9660000  18.9540000  -3.0200000  47.9640000  17.8730000  -2.8720000
  48.9470000  19.2230000  -3.4170000  46.9010000  19.3340000  -4.0620000
  46.8520000  20.4220000  -4.1360000  45.9200000  18.9820000  -3.7330000
  47.2420000  18.7300000  -5.4380000  47.2860000  17.6430000  -5.3470000
  48.2410000  19.0600000  -5.7300000  46.2440000  19.0840000  -6.5610000
  45.2880000  18.6030000  -6.3480000  46.6080000  18.6540000  -7.4960000
  45.9950000  20.5930000  -6.7680000  45.3980000  20.9680000  -5.9340000
  45.3880000  20.7220000  -7.6670000  47.2610000  21.4670000  -6.8940000
  47.7890000  21.4810000  -5.9380000  46.9510000  22.4950000  -7.0960000
  48.2380000  21.0180000  -7.9970000  47.7160000  20.9940000  -8.9560000
  48.5940000  20.0080000  -7.7840000  49.4490000  21.9640000  -8.0880000
  49.8700000  22.1000000  -7.0900000  49.1110000  22.9430000  -8.4350000
  50.5630000  21.4640000  -9.0230000  50.8840000  20.4700000  -8.7060000
  51.4240000  22.1280000  -8.9190000  50.1460000  21.4170000 -10.5030000
  49.7620000  22.3950000 -10.8010000  49.3390000  20.6950000 -10.6410000
  51.3290000  21.0350000 -11.4090000  51.6630000  20.0250000 -11.1610000
  52.1640000  21.7130000 -11.2200000  50.9550000  21.1020000 -12.8990000
  50.6440000  22.1190000 -13.1440000  50.1040000  20.4440000 -13.0890000
  52.1370000  20.6930000 -13.8020000  52.4590000  19.6790000 -13.5580000
  52.9840000  21.3570000 -13.6150000  51.8090000  20.7460000 -15.2740000
  50.7130000  21.0210000 -15.7290000  52.8970000  20.4590000 -16.0240000
  52.7200000  20.2670000 -17.4610000  53.6560000  20.5310000 -17.9580000
  51.9390000  20.9320000 -17.8410000  52.4040000  18.7820000 -17.7870000
  53.2720000  18.1900000 -17.4850000  52.1280000  18.5700000 -19.2950000
  51.5910000  17.6280000 -19.4320000  53.0760000  18.5090000 -19.8360000
  51.3500000  19.6680000 -19.8510000  50.6280000  19.5720000 -21.2920000
  49.0640000  19.6000000 -20.9210000  48.4360000  18.5280000 -20.1910000
  48.9380000  17.5820000 -20.4110000  47.3970000  18.4430000 -20.5220000
  48.4850000  18.8230000 -18.6710000  49.5270000  18.9160000 -18.3600000
  48.0430000  17.9760000 -18.1430000  47.7910000  20.0590000 -18.1430000
  46.3980000  20.1790000 -18.6720000  46.4520000  20.3590000 -19.7470000
  45.9100000  21.0180000 -18.1740000  45.8600000  19.2540000 -18.4630000
  47.7200000  19.9740000 -16.6550000  48.7370000  19.9520000 -16.2610000
  47.1740000  19.0730000 -16.3730000  47.1950000  20.8560000 -16.2840000
  48.5570000  21.2950000 -18.4810000  49.5570000  21.2050000 -18.0540000
  48.0380000  22.1570000 -18.0590000  48.6170000  21.3790000 -19.5670000
  50.9400000  20.8200000 -22.0410000  50.9470000  18.2640000 -21.9270000
  51.2340000  18.3550000 -17.0360000  51.1450000  17.0740000 -16.6270000
  51.9570000  16.2050000 -16.8940000  49.9020000  16.8460000 -15.8020000
  49.2670000  17.7320000 -15.8770000  49.3450000  16.0040000 -16.2180000
  50.2510000  16.5730000 -14.3250000  50.8150000  15.6410000 -14.2620000
  50.9010000  17.3670000 -13.9500000  49.0160000  16.4650000 -13.4090000
  48.3200000  15.7280000 -13.8150000  49.3570000  16.0920000 -12.4420000
  48.2930000  17.8140000 -13.2020000  49.0120000  18.5450000 -12.8250000
  47.9390000  18.1890000 -14.1650000  47.0880000  17.7530000 -12.2390000
  46.6960000  18.7640000 -12.1060000  46.2970000  17.1650000 -12.7090000
  47.3730000  17.1420000 -10.8560000  46.4610000  17.1810000 -10.2560000
  47.6180000  16.0850000 -10.9800000  48.5060000  17.8470000 -10.0910000
  49.3880000  17.9210000 -10.7310000  48.1750000  18.8610000  -9.8570000
  48.8310000  17.1080000  -8.8110000  47.9700000  16.7080000  -8.2810000
  50.0500000  16.8680000  -8.3370000  50.1500000  16.2920000  -7.4200000
  51.3560000  17.3860000  -8.9110000  51.9450000  16.5580000  -9.3100000
  51.1830000  18.0900000  -9.7280000  52.1720000  18.1050000  -7.8240000
  52.9650000  18.6910000  -8.2940000  51.5150000  18.8150000  -7.3180000
  52.8100000  17.1500000  -6.7940000  52.1600000  16.2920000  -6.6110000
  53.7440000  16.7640000  -7.2060000  53.0910000  17.8590000  -5.4570000
  53.8300000  17.2850000  -4.8950000  53.5240000  18.8410000  -5.6590000
  51.8110000  17.9870000  -4.6040000  50.9820000  18.3530000  -5.2140000
  51.5230000  16.9900000  -4.2640000  51.9740000  18.8950000  -3.3710000
  51.0760000  18.8050000  -2.7560000  52.8060000  18.5300000  -2.7660000
  52.2050000  20.3850000  -3.6960000  52.2770000  20.9310000  -2.7530000
  53.1630000  20.5050000  -4.2050000  51.0990000  21.0310000  -4.5510000
  51.3200000  22.0880000  -4.7170000  50.1320000  20.9640000  -4.0480000
  51.0220000  20.5480000  -5.5280000  30.2430000  43.5280000  -0.3620000
  30.1890000  44.4820000   0.1680000  31.2780000  43.3670000  -0.6700000
  29.9520000  42.7340000   0.3290000  29.3120000  43.5410000  -1.5830000
  29.5440000  44.4210000  -2.1860000  28.2780000  43.6390000  -1.2460000
  29.4490000  42.2700000  -2.4440000  29.2070000  41.4010000  -1.8290000
  30.4850000  42.1580000  -2.7690000  28.5260000  42.2730000  -3.6800000
  27.4950000  42.4240000  -3.3540000  28.5760000  41.2860000  -4.1440000
  28.8990000  43.3470000  -4.7260000  29.8960000  43.1400000  -5.1200000
  28.9400000  44.3270000  -4.2450000  27.8920000  43.4470000  -5.8870000
  28.1660000  44.2890000  -6.5260000  26.9070000  43.6710000  -5.4720000
  27.7710000  42.1830000  -6.7550000  26.8960000  42.3070000  -7.3960000
  27.5850000  41.3130000  -6.1210000  28.9850000  41.8990000  -7.6550000
  29.8940000  41.8320000  -7.0540000  29.1070000  42.7280000  -8.3550000
  28.7740000  40.5750000  -8.4160000  27.7610000  40.5490000  -8.8240000
  28.8370000  39.7530000  -7.7010000  29.7730000  40.3160000  -9.5600000
  29.5490000  39.3370000  -9.9900000  30.7840000  40.2580000  -9.1520000
  29.7420000  41.3620000 -10.6940000  30.3720000  41.0040000 -11.5110000
  30.1780000  42.2980000 -10.3390000  28.3280000  41.6570000 -11.2290000
  27.7490000  42.1600000 -10.4520000  27.8200000  40.7200000 -11.4650000
  28.3570000  42.5470000 -12.4830000  28.7730000  41.9770000 -13.3160000
  29.0170000  43.3990000 -12.3030000  26.9460000  43.0520000 -12.8470000
  26.5950000  43.7460000 -12.0810000  26.2660000  42.1980000 -12.8380000
  26.8400000  43.7170000 -14.2350000  25.7870000  43.9080000 -14.4530000
  27.1990000  43.0240000 -14.9990000  27.5910000  45.0230000 -14.3880000
  28.3160000  45.5270000 -13.5450000  27.3220000  45.5790000 -15.5890000
  28.1590000  46.6630000 -16.0830000  28.4340000  47.3400000 -15.2700000
  27.5710000  47.2320000 -16.8080000  29.4330000  46.1350000 -16.8020000
  29.9350000  46.9940000 -17.2550000  29.0840000  45.1020000 -17.9150000
  29.8760000  45.0960000 -18.6680000  28.1560000  45.4090000 -18.4050000
  28.9270000  43.7490000 -17.3930000  28.4170000  42.5370000 -18.3330000
  29.7390000  42.1370000 -19.1650000  30.8190000  41.3970000 -18.5590000
  31.0520000  40.5310000 -19.1840000  30.5190000  41.0300000 -17.5740000
  32.0580000  42.3110000 -18.4080000  32.8210000  41.7660000 -17.8500000
  31.7770000  43.1950000 -17.8340000  32.7440000  42.8200000 -19.6550000
  31.9090000  43.8280000 -20.3730000  30.9660000  43.3580000 -20.6530000
  32.4480000  44.1590000 -21.2620000  31.7330000  44.6680000 -19.7000000
  34.0160000  43.4930000 -19.2570000  34.6550000  42.7680000 -18.7520000
  33.7750000  44.3210000 -18.5900000  34.5070000  43.8660000 -20.1570000
  33.0770000  41.7040000 -20.5900000  33.6810000  40.9690000 -20.0570000
  33.6350000  42.1120000 -21.4340000  32.1460000  41.2550000 -20.9390000
  28.0280000  41.3910000 -17.4660000  27.4180000  43.0620000 -19.3060000
  30.3140000  45.5410000 -15.8080000  31.5870000  45.2610000 -16.1310000
  32.0940000  45.5050000 -17.2130000  32.3270000  44.5800000 -15.0070000
  33.3750000  44.4680000 -15.2920000  32.2820000  45.2210000 -14.1230000
  31.7180000  43.1970000 -14.6880000  30.7210000  43.3290000 -14.2640000
  31.6000000  42.6310000 -15.6140000  32.5750000  42.3610000 -13.7180000
  32.0860000  41.3970000 -13.5630000  33.5440000  42.1610000 -14.1800000
  32.7930000  43.0390000 -12.3540000  33.3200000  43.9850000 -12.4960000
  31.8200000  43.2650000 -11.9120000  33.6150000  42.1560000 -11.3960000
  33.0820000  41.2190000 -11.2200000  34.5630000  41.9020000 -11.8740000
  33.9130000  42.8320000 -10.0440000  34.5560000  42.1710000  -9.4590000
  34.4700000  43.7560000 -10.2120000  32.6440000  43.1390000  -9.2320000
  32.0120000  43.8440000  -9.7760000  32.0710000  42.2180000  -9.1070000
  32.9810000  43.7260000  -7.8820000  33.0750000  44.8090000  -7.8510000
  33.1170000  43.0200000  -6.7670000  33.3310000  43.5380000  -5.8350000
  33.0310000  41.5090000  -6.6620000  32.0830000  41.1560000  -7.0760000
  33.8380000  41.0460000  -7.2340000  33.1290000  41.0530000  -5.1940000
  32.3290000  41.5390000  -4.6300000  32.9610000  39.9760000  -5.1300000
  34.4930000  41.3960000  -4.5600000  35.2570000  40.7030000  -4.9180000
  34.7920000  42.3960000  -4.8810000  34.4550000  41.3910000  -3.0230000
  33.5580000  41.9250000  -2.7010000  34.3850000  40.3700000  -2.6420000
  35.6920000  42.1020000  -2.4410000  36.5620000  41.4430000  -2.4750000
  35.9170000  42.9690000  -3.0660000  35.4490000  42.5970000  -1.0070000
  34.4280000  42.9780000  -0.9400000  35.5270000  41.7660000  -0.3030000
  36.4150000  43.7260000  -0.6100000  37.3900000  43.3050000  -0.3550000
  36.5590000  44.3960000  -1.4600000  35.8690000  44.5550000   0.5620000
  36.5580000  45.3680000   0.8010000  35.7420000  43.9270000   1.4470000
  34.9020000  44.9920000   0.3050000 -12.4470000 -48.6520000  -2.0300000
 -12.0560000 -48.6020000  -1.0120000 -11.7240000 -48.1810000  -2.6990000
 -12.5460000 -49.7030000  -2.3100000 -13.8130000 -47.9520000  -2.1090000
 -13.6950000 -46.9050000  -1.8220000 -14.4850000 -48.4100000  -1.3810000
 -14.4640000 -48.0270000  -3.5050000 -15.4480000 -47.5570000  -3.4480000
 -14.6210000 -49.0720000  -3.7790000 -13.6370000 -47.3290000  -4.6010000
 -12.7230000 -47.8950000  -4.7920000 -13.3420000 -46.3380000  -4.2480000
 -14.4240000 -47.1670000  -5.9140000 -15.3490000 -46.6240000  -5.7120000
 -14.6980000 -48.1550000  -6.2910000 -13.6130000 -46.4030000  -6.9800000
 -12.7180000 -46.9740000  -7.2360000 -13.2820000 -45.4540000  -6.5540000
 -14.4100000 -46.0970000  -8.2620000 -13.7980000 -45.4660000  -8.9090000
 -15.2980000 -45.5180000  -7.9990000 -14.8330000 -47.3530000  -9.0460000
 -15.4460000 -47.9960000  -8.4110000 -13.9440000 -47.9200000  -9.3310000
 -15.6390000 -46.9800000 -10.3030000 -15.0310000 -46.3360000 -10.9430000
 -16.5160000 -46.4060000  -9.9980000 -16.0970000 -48.2140000 -11.1040000
 -16.5470000 -48.9360000 -10.4180000 -15.2330000 -48.6980000 -11.5650000
 -17.1310000 -47.8670000 -12.1890000 -17.9780000 -47.3860000 -11.6950000
 -17.5140000 -48.7900000 -12.6320000 -16.6130000 -46.9340000 -13.3030000
 -16.2590000 -46.0010000 -12.8590000 -17.4540000 -46.6700000 -13.9480000
 -15.4920000 -47.5340000 -14.1780000 -14.6220000 -47.7640000 -13.5600000
 -15.1740000 -46.7760000 -14.8970000 -15.9430000 -48.8040000 -14.9320000
 -16.9220000 -48.6350000 -15.3840000 -16.0670000 -49.6120000 -14.2070000
 -14.9560000 -49.2760000 -16.0250000 -15.2390000 -50.2780000 -16.3530000
 -13.9470000 -49.3450000 -15.6130000 -14.9290000 -48.3900000 -17.2510000
 -15.5720000 -47.3630000 -17.3740000 -14.1120000 -48.8880000 -18.2010000
 -13.7990000 -48.0510000 -19.3620000 -14.5990000 -47.3350000 -19.5680000
 -13.7080000 -48.6990000 -20.2370000 -12.4600000 -47.3010000 -19.1390000
 -12.3160000 -46.5660000 -19.9360000 -11.2720000 -48.2900000 -19.0940000
 -11.3680000 -48.9110000 -18.2000000 -10.3300000 -47.7390000 -19.0460000
 -11.2610000 -49.1470000 -20.2670000 -10.2840000 -50.4250000 -20.3440000
 -10.8080000 -51.3250000 -19.1240000 -12.0650000 -52.0200000 -19.2000000
 -11.8930000 -53.0520000 -19.5180000 -12.7070000 -51.5320000 -19.9380000
 -12.7640000 -51.9540000 -17.8200000 -13.7140000 -52.4850000 -17.8960000
 -12.9780000 -50.9120000 -17.5790000 -12.0530000 -52.5380000 -16.6180000
 -10.9320000 -51.6580000 -16.1650000 -10.2000000 -51.5920000 -16.9720000
 -10.4740000 -52.0980000 -15.2780000 -11.3300000 -50.6680000 -15.9390000
 -13.0230000 -52.6550000 -15.4870000 -13.8360000 -53.3160000 -15.7910000
 -13.4100000 -51.6640000 -15.2460000 -12.5030000 -53.0760000 -14.6250000
 -11.5160000 -53.9020000 -16.9100000 -12.3390000 -54.5400000 -17.2350000
 -11.0620000 -54.3010000 -16.0020000 -10.7660000 -53.8150000 -17.6980000
 -10.5500000 -51.1440000 -21.6210000  -8.8950000 -49.9870000 -20.0420000
 -12.5430000 -46.6410000 -17.8480000 -11.6140000 -45.7450000 -17.4720000
 -10.8020000 -45.2380000 -18.2260000 -11.6650000 -45.5080000 -15.9810000
 -10.8690000 -44.8190000 -15.6910000 -12.6230000 -45.0480000 -15.7280000
 -11.5160000 -46.8460000 -15.2230000 -12.3080000 -47.5270000 -15.5410000
 -10.5660000 -47.3080000 -15.4980000 -11.5880000 -46.7200000 -13.6910000
 -10.7480000 -46.1210000 -13.3330000 -12.5100000 -46.2090000 -13.4060000
 -11.5540000 -48.1170000 -13.0430000 -12.3980000 -48.6960000 -13.4230000
 -10.6430000 -48.6330000 -13.3550000 -11.6040000 -48.0810000 -11.5050000
 -10.7540000 -47.5010000 -11.1380000 -12.5130000 -47.5710000 -11.1780000
 -11.5480000 -49.4890000 -10.8780000 -10.6770000 -50.0220000 -11.2680000
 -11.4090000 -49.3890000  -9.8000000 -12.8190000 -50.3190000 -11.1360000
 -13.6680000 -49.8050000 -10.6800000 -13.0110000 -50.3800000 -12.2090000
 -12.6840000 -51.7230000 -10.5920000 -11.9980000 -52.3620000 -11.1420000
 -13.3280000 -52.2190000  -9.5400000 -13.1440000 -53.2500000  -9.2510000
 -14.3050000 -51.4830000  -8.6440000 -14.8750000 -50.7410000  -9.2070000
 -15.0320000 -52.1960000  -8.2490000 -13.5880000 -50.7940000  -7.4680000
 -12.9660000 -49.9850000  -7.8580000 -14.3360000 -50.3430000  -6.8130000
 -12.7080000 -51.7560000  -6.6450000 -13.3280000 -52.5480000  -6.2200000
 -11.9760000 -52.2300000  -7.3010000 -11.9490000 -51.0330000  -5.5210000
 -11.3850000 -50.2060000  -5.9580000 -12.6590000 -50.6090000  -4.8080000
 -10.9870000 -51.9940000  -4.7960000 -11.5650000 -52.8140000  -4.3630000
 -10.3070000 -52.4380000  -5.5250000 -10.1630000 -51.3310000  -3.6760000
 -10.8360000 -51.0170000  -2.8760000  -9.4980000 -52.0860000  -3.2520000
  -9.3140000 -50.1220000  -4.1190000  -9.9610000 -49.3260000  -4.4940000
  -8.8010000 -49.7200000  -3.2430000  -8.2590000 -50.4710000  -5.1820000
  -7.6580000 -49.5900000  -5.4170000  -8.7310000 -50.8180000  -6.1030000
  -7.5920000 -51.2540000  -4.8130000  24.6980000  48.1080000  -2.7340000
  24.4860000  49.1730000  -2.8560000  25.3150000  47.9850000  -1.8410000
  23.7500000  47.5900000  -2.5790000  25.4290000  47.5610000  -3.9730000
  26.3240000  48.1620000  -4.1470000  24.7930000  47.6830000  -4.8520000
  25.8430000  46.0810000  -3.8380000  26.5900000  45.9930000  -3.0460000
  26.3290000  45.7740000  -4.7670000  24.6840000  45.1090000  -3.5330000
  24.2450000  45.3570000  -2.5640000  25.0900000  44.0990000  -3.4480000
  23.5790000  45.1140000  -4.6050000  24.0250000  44.8350000  -5.5620000
  23.1700000  46.1210000  -4.7110000  22.4290000  44.1500000  -4.2500000
  22.0080000  44.4420000  -3.2860000  22.8200000  43.1370000  -4.1380000
  21.2980000  44.1340000  -5.2930000  20.9080000  45.1470000  -5.4050000
  20.4820000  43.5150000  -4.9150000  21.7370000  43.5920000  -6.6690000
  22.0060000  42.5370000  -6.5780000  22.6220000  44.1280000  -7.0180000
  20.6230000  43.7580000  -7.7140000  20.3350000  44.8100000  -7.7610000
  19.7450000  43.1910000  -7.3950000  21.0450000  43.2910000  -9.1170000
  21.1140000  42.2010000  -9.1280000  22.0360000  43.6870000  -9.3460000
  20.0430000  43.7550000 -10.1910000  19.9790000  44.8450000 -10.1770000
  19.0490000  43.3780000  -9.9420000  20.4070000  43.2950000 -11.6140000
  19.5680000  43.5380000 -12.2690000  20.5270000  42.2100000 -11.6300000
  21.6910000  43.9640000 -12.1440000  22.5260000  43.6530000 -11.5130000
  21.6050000  45.0490000 -12.0530000  22.0390000  43.5960000 -13.6000000
  21.7980000  42.5480000 -13.7870000  23.1190000  43.6970000 -13.7200000
  21.3730000  44.4940000 -14.6600000  21.7450000  44.2280000 -15.6520000
  21.6600000  45.5340000 -14.4880000  19.8670000  44.4020000 -14.6780000
  19.2430000  43.3910000 -14.9530000  19.2970000  45.5670000 -14.3290000
  17.9750000  45.9030000 -14.8480000  17.3150000  46.1050000 -14.0010000
  17.5490000  45.0840000 -15.4340000  18.0790000  47.1830000 -15.7260000
  17.0660000  47.5710000 -15.8610000  18.7130000  46.9540000 -17.1300000
  19.4440000  47.7420000 -17.3270000  17.9370000  47.0140000 -17.8980000
  19.3800000  45.6720000 -17.2530000  20.4770000  45.4040000 -18.3910000
  21.7790000  46.1220000 -17.8010000  23.0840000  45.8360000 -18.3380000
  23.1860000  44.7580000 -18.4860000  23.8420000  46.1520000 -17.6160000
  23.2780000  46.5820000 -19.6800000  22.4710000  46.3010000 -20.3590000
  24.2220000  46.2620000 -20.1250000  23.3110000  48.0920000 -19.6770000
  24.4000000  48.6060000 -18.7920000  24.1820000  48.3130000 -17.7640000
  24.4290000  49.6940000 -18.8740000  25.3490000  48.1780000 -19.1200000
  23.5720000  48.5590000 -21.0710000  22.7650000  48.1970000 -21.7100000
  24.5290000  48.1550000 -21.4040000  23.5970000  49.6490000 -21.0770000
  22.0120000  48.6810000 -19.2410000  21.2250000  48.2750000 -19.8790000
  22.0640000  49.7670000 -19.3310000  21.8330000  48.3830000 -18.2070000
  20.7050000  43.9410000 -18.4480000  20.0510000  46.1140000 -19.6210000
  18.8540000  48.1600000 -14.9790000  18.7920000  49.4620000 -15.2960000
  18.1390000  49.9090000 -16.2230000  19.6580000  50.2980000 -14.3860000
  19.0930000  51.1830000 -14.0870000  19.8820000  49.7350000 -13.4780000
  20.9660000  50.7270000 -15.0800000  20.7170000  51.3300000 -15.9550000
  21.5250000  51.3740000 -14.4010000  21.8840000  49.5690000 -15.5270000
  21.3460000  48.9110000 -16.2130000  22.7140000  50.0010000 -16.0890000
  22.4600000  48.7310000 -14.3680000  22.8740000  49.4090000 -13.6180000
  21.6650000  48.1520000 -13.8920000  23.5640000  47.7820000 -14.8780000
  23.1290000  47.0930000 -15.6040000  24.3130000  48.3740000 -15.4090000
  24.2870000  46.9610000 -13.7910000  23.5980000  46.2250000 -13.3740000
  25.0980000  46.4060000 -14.2680000  24.8640000  47.8240000 -12.6520000
  25.3360000  48.7110000 -13.0800000  24.0510000  48.1770000 -12.0130000
  25.8960000  47.0850000 -11.8240000  26.9270000  47.3380000 -12.0550000
  25.6510000  46.2540000 -10.8170000  26.4870000  45.8250000 -10.2700000
  24.2920000  45.7260000 -10.4120000  23.5410000  45.9480000 -11.1720000
  24.3540000  44.6380000 -10.3340000  23.8100000  46.2780000  -9.0600000
  22.9380000  45.6910000  -8.7630000  24.5780000  46.1260000  -8.2990000
  23.4170000  47.7680000  -9.1230000  24.3000000  48.3640000  -9.3640000
  22.6990000  47.9140000  -9.9330000  22.7990000  48.3010000  -7.8160000
  23.5460000  48.2380000  -7.0220000  22.5590000  49.3570000  -7.9580000
  21.5320000  47.5300000  -7.3840000  20.8450000  47.4510000  -8.2290000
  21.8240000  46.5140000  -7.1080000  20.7840000  48.1400000  -6.1830000
  20.0470000  47.4160000  -5.8290000  21.4860000  48.3060000  -5.3630000
  20.0500000  49.4510000  -6.5230000  20.7570000  50.1740000  -6.9360000
  19.3010000  49.2560000  -7.2930000  19.3600000  50.0660000  -5.2940000
  18.8120000  50.9680000  -5.5760000  20.0960000  50.3340000  -4.5330000
  18.6530000  49.3560000  -4.8590000 -18.0610000 -53.1380000   0.5970000
 -18.4580000 -53.4040000   1.5790000 -17.4690000 -52.2270000   0.7010000
 -17.4070000 -53.9440000   0.2590000 -19.2120000 -52.9220000  -0.3990000
 -19.8480000 -52.1130000  -0.0340000 -19.8270000 -53.8230000  -0.4380000
 -18.7220000 -52.5880000  -1.8200000 -18.1140000 -53.4160000  -2.1910000
 -18.0900000 -51.6980000  -1.7880000 -19.8990000 -52.3460000  -2.7820000
 -20.5020000 -51.5200000  -2.3970000 -20.5350000 -53.2330000  -2.7940000
 -19.4480000 -52.0330000  -4.2250000 -18.8340000 -52.8610000  -4.5850000
 -18.8230000 -51.1380000  -4.2350000 -20.6410000 -51.8510000  -5.1880000
 -21.3210000 -52.6940000  -5.0510000 -20.2840000 -51.9010000  -6.2190000
 -21.4250000 -50.5360000  -4.9850000 -21.4070000 -50.2600000  -3.9280000
 -22.4750000 -50.7050000  -5.2330000 -20.8830000 -49.3520000  -5.8160000
 -19.8020000 -49.4490000  -5.9330000 -21.0510000 -48.4320000  -5.2520000
 -21.5400000 -49.1620000  -7.2010000 -21.3500000 -50.0360000  -7.8280000
 -21.0540000 -48.3130000  -7.6850000 -23.0620000 -48.9010000  -7.1230000
 -23.3220000 -48.5740000  -6.1140000 -23.6000000 -49.8360000  -7.2910000
 -23.5790000 -47.8140000  -8.0850000 -23.0550000 -46.8810000  -7.8660000
 -24.6370000 -47.6360000  -7.8790000 -23.4140000 -48.1350000  -9.5790000
 -22.3800000 -48.4240000  -9.7810000 -23.6150000 -47.2260000 -10.1500000
 -24.3710000 -49.2350000 -10.0700000 -25.4030000 -48.8870000  -9.9790000
 -24.2680000 -50.1210000  -9.4410000 -24.0820000 -49.6200000 -11.5290000
 -23.0410000 -49.9400000 -11.6090000 -24.2100000 -48.7450000 -12.1700000
 -25.0000000 -50.7480000 -12.0290000 -26.0310000 -50.3940000 -12.0880000
 -24.9730000 -51.5890000 -11.3330000 -24.5510000 -51.2250000 -13.3850000
 -23.7670000 -52.1470000 -13.5410000 -25.1160000 -50.5220000 -14.3920000
 -24.7040000 -50.8210000 -15.7610000 -25.5690000 -50.6650000 -16.4110000
 -24.4180000 -51.8720000 -15.8550000 -23.5650000 -49.8870000 -16.2600000
 -24.0180000 -49.0100000 -16.7280000 -22.7190000 -50.6470000 -17.3140000
 -23.3580000 -51.0080000 -18.1240000 -22.2590000 -51.5120000 -16.8290000
 -21.6540000 -49.8230000 -17.8640000 -21.8910000 -48.9080000 -19.1700000
 -20.5580000 -48.0170000 -19.2300000 -20.2300000 -47.1100000 -18.1610000
 -19.3860000 -47.5280000 -17.6060000 -21.0680000 -47.0020000 -17.4680000
 -19.8340000 -45.7410000 -18.7580000 -19.0770000 -45.8950000 -19.5290000
 -19.3960000 -45.1350000 -17.9630000 -20.9030000 -44.8780000 -19.3800000
 -22.0770000 -44.7180000 -18.4680000 -22.5450000 -45.6960000 -18.3470000
 -22.7840000 -44.0260000 -18.9290000 -21.7300000 -44.3350000 -17.5070000
 -20.3260000 -43.5240000 -19.6430000 -19.4950000 -43.6290000 -20.3420000
 -19.9650000 -43.0920000 -18.7080000 -21.1000000 -42.8910000 -20.0810000
 -21.3680000 -45.4390000 -20.6800000 -20.5070000 -45.5530000 -21.3400000
 -22.1000000 -44.7570000 -21.1160000 -21.8260000 -46.4100000 -20.4840000
 -21.9030000 -49.7970000 -20.3640000 -23.0480000 -48.0080000 -18.9340000
 -22.6710000 -49.5050000 -15.1690000 -22.5940000 -48.2110000 -14.7940000
 -23.3070000 -47.3190000 -15.2230000 -21.5010000 -47.9930000 -13.7710000
 -21.3630000 -48.9160000 -13.2040000 -20.5670000 -47.8020000 -14.3040000
 -21.7920000 -46.8350000 -12.7890000 -21.9370000 -45.9050000 -13.3430000
 -22.7150000 -47.0400000 -12.2420000 -20.6260000 -46.6570000 -11.7980000
 -20.4020000 -47.6180000 -11.3300000 -19.7450000 -46.3590000 -12.3700000
 -20.8750000 -45.6150000 -10.6900000 -21.1730000 -44.6670000 -11.1430000
 -21.6990000 -45.9450000 -10.0540000 -19.6100000 -45.3970000  -9.8320000
 -19.2940000 -46.3460000  -9.3930000 -18.7990000 -45.0720000 -10.4870000
 -19.7950000 -44.3400000  -8.7220000 -18.8140000 -43.9790000  -8.4070000
 -20.3280000 -43.4800000  -9.1330000 -20.5510000 -44.8510000  -7.4800000
 -20.8540000 -43.9920000  -6.8760000 -21.4660000 -45.3470000  -7.8080000
 -19.7040000 -45.8230000  -6.6770000 -19.2100000 -46.5910000  -7.2650000
 -19.5220000 -45.8110000  -5.3580000 -18.8860000 -46.5680000  -4.9070000
 -20.1380000 -44.8320000  -4.3780000 -19.4350000 -44.6300000  -3.5670000
 -20.3350000 -43.8720000  -4.8600000 -21.4540000 -45.3780000  -3.7930000
 -21.9530000 -44.5810000  -3.2370000 -22.1100000 -45.6410000  -4.6260000
 -21.2570000 -46.6010000  -2.8670000 -20.7540000 -47.3990000  -3.4160000
 -20.5940000 -46.3320000  -2.0420000 -22.5710000 -47.1550000  -2.2780000
 -22.3390000 -48.0330000  -1.6710000 -23.0170000 -46.4120000  -1.6140000
 -23.5850000 -47.5420000  -3.3690000 -23.9200000 -46.6370000  -3.8800000
 -23.0810000 -48.1680000  -4.1090000 -24.8250000 -48.2880000  -2.8500000
 -25.1980000 -47.7940000  -1.9510000 -25.6080000 -48.2210000  -3.6080000
 -24.5640000 -49.7740000  -2.5450000 -24.1370000 -50.2540000  -3.4280000
 -23.8390000 -49.8670000  -1.7340000 -25.8630000 -50.5010000  -2.1610000
 -25.6730000 -51.5650000  -2.0120000 -26.6050000 -50.3970000  -2.9550000
 -26.2790000 -50.0840000  -1.2420000  19.6090000  -6.8100000  -0.3120000
  18.7910000  -6.3610000   0.2550000  20.0710000  -7.5880000   0.2990000
  19.1880000  -7.2670000  -1.2090000  20.6450000  -5.7440000  -0.6970000
  21.0660000  -5.3010000   0.2080000  20.1310000  -4.9510000  -1.2440000
  21.7810000  -6.3320000  -1.5600000  21.3530000  -6.7940000  -2.4520000
  22.2790000  -7.1250000  -0.9990000  22.8360000  -5.2920000  -1.9910000
  23.5810000  -5.7910000  -2.6140000  23.3540000  -4.9190000  -1.1050000
  22.2390000  -4.1030000  -2.7680000  21.5670000  -3.5440000  -2.1130000
  21.6490000  -4.4810000  -3.6060000  23.3150000  -3.1410000  -3.3030000
  23.8800000  -3.6350000  -4.0960000  24.0180000  -2.9130000  -2.4980000
  22.7250000  -1.8120000  -3.8180000  23.5410000  -1.1470000  -4.1080000
  22.2080000  -1.3270000  -2.9870000  21.7390000  -1.9430000  -4.9970000
  21.2230000  -0.9880000  -5.1090000  20.9750000  -2.6890000  -4.7690000
  22.4250000  -2.2760000  -6.3370000  22.9850000  -3.2090000  -6.2590000
  23.1440000  -1.4830000  -6.5550000  21.4240000  -2.3620000  -7.5080000
  21.9670000  -2.1950000  -8.4410000  20.6910000  -1.5580000  -7.4140000
  20.7010000  -3.7220000  -7.5950000  20.3560000  -4.0110000  -6.6000000
  21.4130000  -4.4850000  -7.9180000  19.4820000  -3.7200000  -8.5400000
  18.6980000  -3.1090000  -8.0880000  19.0910000  -4.7380000  -8.6060000
  19.7290000  -3.1950000  -9.9670000  20.1300000  -2.1800000  -9.9180000
  18.7630000  -3.1280000 -10.4720000  20.6600000  -4.0730000 -10.8220000
  20.2600000  -5.0890000 -10.8590000  21.6510000  -4.1200000 -10.3650000
  20.7760000  -3.5080000 -12.2550000  21.2260000  -2.5140000 -12.2210000
  19.7800000  -3.3950000 -12.6880000  21.5940000  -4.3700000 -13.1920000
  22.0670000  -5.4570000 -12.9080000  21.7310000  -3.7730000 -14.3920000
  22.3650000  -4.4810000 -15.4960000  22.9720000  -5.3180000 -15.1410000
  23.0310000  -3.7820000 -16.0080000  21.3010000  -4.9700000 -16.5160000
  21.8070000  -5.5570000 -17.2870000  20.6090000  -3.7840000 -17.2220000
  20.5560000  -2.9290000 -16.5430000  19.5880000  -4.0510000 -17.5060000
  21.3520000  -3.4000000 -18.4140000  21.1560000  -4.1700000 -19.8240000
  22.3220000  -5.2670000 -19.8530000  22.5540000  -6.0120000 -21.0650000
  23.4540000  -5.6200000 -21.5460000  21.7170000  -5.8830000 -21.7550000
  22.7370000  -7.5130000 -20.7390000  23.5400000  -7.6220000 -20.0090000
  23.0360000  -8.0270000 -21.6540000  21.5550000  -8.2890000 -20.2030000
  20.3550000  -8.1590000 -21.0800000  20.0240000  -7.1200000 -21.0510000
  19.5750000  -8.8080000 -20.6790000  20.6220000  -8.4590000 -22.0950000
  21.9290000  -9.7310000 -20.1340000  22.8010000  -9.8420000 -19.4880000
  22.1430000 -10.0900000 -21.1410000  21.0840000 -10.2760000 -19.7110000
  21.1690000  -7.8450000 -18.8400000  22.0410000  -7.9020000 -18.1870000
  20.3790000  -8.5090000 -18.4880000  20.8010000  -6.8210000 -18.9130000
  19.8860000  -4.9310000 -19.8040000  21.3810000  -3.1920000 -20.9250000
  20.2820000  -5.8110000 -15.8980000  20.6160000  -7.0940000 -15.6590000
  21.7430000  -7.5330000 -15.7930000  19.4360000  -7.9580000 -15.2920000
  18.5230000  -7.5500000 -15.7300000  19.5920000  -8.9370000 -15.7510000
  19.2800000  -8.1530000 -13.7720000  18.5780000  -8.9730000 -13.6100000
  20.2370000  -8.4720000 -13.3530000  18.7690000  -6.9260000 -12.9880000
  18.6230000  -7.2280000 -11.9490000  19.5330000  -6.1460000 -12.9880000
  17.4590000  -6.3320000 -13.5430000  17.6970000  -5.7040000 -14.4040000
  16.8130000  -7.1400000 -13.8940000  16.6800000  -5.4950000 -12.5100000
  17.3770000  -4.9040000 -11.9120000  16.0290000  -4.7950000 -13.0380000
  15.8070000  -6.3890000 -11.6050000  15.0660000  -6.8960000 -12.2250000
  16.4250000  -7.1650000 -11.1480000  15.0680000  -5.6210000 -10.4940000
  14.4960000  -4.8010000 -10.9340000  14.3420000  -6.2850000 -10.0200000
  16.0240000  -5.0760000  -9.4540000  16.2790000  -4.0250000  -9.5660000
  16.5050000  -5.7540000  -8.4160000  17.1510000  -5.2410000  -7.7090000
  16.2750000  -7.2240000  -8.1200000  15.8080000  -7.3290000  -7.1380000
  15.5900000  -7.6700000  -8.8450000  17.5990000  -8.0160000  -8.1460000
  17.3830000  -9.0800000  -8.0280000  18.0520000  -7.8930000  -9.1320000
  18.6240000  -7.5870000  -7.0750000  19.5910000  -8.0270000  -7.3240000
  18.7550000  -6.5030000  -7.1050000  18.2430000  -8.0300000  -5.6490000
  17.2110000  -7.7500000  -5.4260000  18.2890000  -9.1200000  -5.6010000
  19.1880000  -7.4440000  -4.5810000  19.1390000  -8.0600000  -3.6800000
  20.2170000  -7.5060000  -4.9410000  18.8690000  -5.9840000  -4.1960000
  19.6750000  -5.6140000  -3.5580000  18.8580000  -5.3590000  -5.0910000
  17.5340000  -5.8260000  -3.4390000  16.7010000  -6.0810000  -4.0970000
  17.5070000  -6.5150000  -2.5920000  17.3310000  -4.3980000  -2.9140000
  16.3720000  -4.3140000  -2.3980000  17.3410000  -3.6940000  -3.7480000
  18.1250000  -4.1240000  -2.2160000 -13.9710000  22.3570000  -0.7860000
 -12.9680000  22.6400000  -0.4610000 -13.8830000  21.6130000  -1.5800000
 -14.4930000  21.9010000   0.0580000 -14.7430000  23.5880000  -1.2870000
 -14.8720000  24.2930000  -0.4630000 -15.7400000  23.2800000  -1.6090000
 -14.0400000  24.2940000  -2.4590000 -13.8720000  23.5740000  -3.2620000
 -13.0620000  24.6510000  -2.1270000 -14.8730000  25.4840000  -2.9740000
 -15.0080000  26.1790000  -2.1420000 -15.8690000  25.1470000  -3.2700000
 -14.2190000  26.2530000  -4.1380000 -13.1320000  26.2270000  -4.0330000
 -14.5100000  27.3020000  -4.0510000 -14.6160000  25.7930000  -5.5550000
 -14.1400000  26.4760000  -6.2620000 -15.6950000  25.9050000  -5.6830000
 -14.2150000  24.3430000  -5.8870000 -14.8140000  23.6600000  -5.2800000
 -13.1680000  24.1930000  -5.6150000 -14.4050000  23.9690000  -7.3690000
 -15.4400000  24.1570000  -7.6630000 -14.2260000  22.8980000  -7.4830000
 -13.4530000  24.7350000  -8.3080000 -12.4230000  24.5630000  -7.9900000
 -13.6450000  25.8070000  -8.2390000 -13.6080000  24.3040000  -9.7760000
 -14.6390000  24.4700000 -10.0950000 -13.3940000  23.2360000  -9.8540000
 -12.6550000  25.0890000 -10.6910000 -11.6320000  24.9030000 -10.3560000
 -12.8420000  26.1580000 -10.5690000 -12.7630000  24.7390000 -12.1880000
 -12.0420000  25.3540000 -12.7310000 -13.7560000  25.0110000 -12.5530000
 -12.4960000  23.2550000 -12.5110000 -13.3050000  22.6440000 -12.1060000
 -11.5690000  22.9390000 -12.0270000 -12.3840000  23.0180000 -14.0300000
 -11.5660000  23.6300000 -14.4160000 -13.2970000  23.3610000 -14.5200000
 -12.1210000  21.5480000 -14.4140000 -11.2930000  21.1420000 -13.8280000
 -11.8290000  21.5000000 -15.4650000 -13.3510000  20.6930000 -14.2170000
 -13.5910000  20.0890000 -13.1870000 -14.1130000  20.6490000 -15.3300000
 -15.4610000  20.1000000 -15.2530000 -15.5090000  19.3000000 -14.5100000
 -15.6970000  19.6610000 -16.2260000 -16.5350000  21.1840000 -14.9410000
 -17.4810000  20.6510000 -14.8110000 -16.7080000  22.2140000 -16.0930000
 -17.5980000  22.8220000 -15.9140000 -16.8560000  21.6650000 -17.0260000
 -15.5590000  23.0950000 -16.2420000 -15.3080000  23.9120000 -17.6160000
 -14.7870000  22.7650000 -18.6150000 -13.4670000  22.2130000 -18.4640000
 -13.3430000  21.8800000 -17.4300000 -12.7180000  22.9810000 -18.6720000
 -13.3060000  21.0000000 -19.4100000 -14.0850000  20.2690000 -19.1920000
 -12.3390000  20.5340000 -19.2140000 -13.3530000  21.2410000 -20.9010000
 -12.4060000  22.3220000 -21.3080000 -12.7350000  23.2580000 -20.8530000
 -12.4220000  22.4080000 -22.3950000 -11.4050000  22.0580000 -20.9620000
 -12.9530000  19.9850000 -21.6020000 -13.6510000  19.1940000 -21.3250000
 -11.9400000  19.7210000 -21.2950000 -12.9880000  20.1610000 -22.6780000
 -14.7280000  21.5980000 -21.3620000 -15.4090000  20.7940000 -21.0800000
 -14.7140000  21.7280000 -22.4450000 -15.0230000  22.5270000 -20.8710000
 -16.6150000  24.4080000 -18.1310000 -14.2070000  24.8950000 -17.4040000
 -16.2010000  21.8680000 -13.6990000 -17.1930000  22.4370000 -12.9870000
 -18.3710000  22.4130000 -13.3060000 -16.6900000  23.1320000 -11.7430000
 -15.6760000  23.5000000 -11.9180000 -17.3250000  24.0000000 -11.5550000
 -16.7150000  22.2060000 -10.5100000 -16.5690000  22.8130000  -9.6140000
 -17.7030000  21.7470000 -10.4260000 -15.6270000  21.1160000 -10.5450000
 -15.7200000  20.5310000 -11.4630000 -14.6440000  21.5920000 -10.5640000
 -15.7000000  20.1540000  -9.3470000 -15.7920000  20.7230000  -8.4190000
 -16.5930000  19.5340000  -9.4440000 -14.4600000  19.2440000  -9.2630000
 -14.1690000  18.9350000 -10.2690000 -13.6280000  19.8200000  -8.8510000
 -14.6860000  17.9730000  -8.4210000 -15.3870000  17.3270000  -8.9540000
 -13.7420000  17.4280000  -8.3490000 -15.2350000  18.2010000  -7.0000000
 -16.2330000  18.6400000  -7.0620000 -15.3550000  17.2310000  -6.5150000
 -14.3360000  19.1120000  -6.1920000 -14.4450000  20.1700000  -6.4150000
 -13.4580000  18.7360000  -5.2690000 -12.8780000  19.5030000  -4.7620000
 -13.1570000  17.3250000  -4.8100000 -13.0040000  17.3360000  -3.7280000
 -14.0000000  16.6580000  -4.9990000 -11.9030000  16.7460000  -5.4950000
 -11.7540000  15.7210000  -5.1490000 -12.0910000  16.6920000  -6.5700000
 -10.6030000  17.5460000  -5.2670000  -9.8280000  17.1190000  -5.9080000
 -10.7480000  18.5770000  -5.5950000 -10.0990000  17.5380000  -3.8090000
 -10.8450000  18.0010000  -3.1600000  -9.9710000  16.5050000  -3.4770000
  -8.7570000  18.2900000  -3.6750000  -8.0330000  17.8620000  -4.3710000
  -8.8980000  19.3320000  -3.9710000  -8.1420000  18.2670000  -2.2630000
  -7.9910000  17.2350000  -1.9420000  -7.1560000  18.7350000  -2.3160000
  -8.9910000  19.0210000  -1.2230000  -9.2890000  19.9890000  -1.6330000
  -9.9030000  18.4590000  -1.0140000  -8.2230000  19.2640000   0.0860000
  -8.8680000  19.7550000   0.8170000  -7.3560000  19.9020000  -0.0950000
  -7.8740000  18.3210000   0.5130000  42.9760000  28.5370000  -3.8880000
  42.6760000  27.6040000  -4.3690000  43.2930000  29.2400000  -4.6620000
  42.1080000  28.9530000  -3.3710000  44.1150000  28.2800000  -2.8910000
  44.9450000  27.8050000  -3.4180000  43.7640000  27.5820000  -2.1280000
  44.6080000  29.5750000  -2.2160000  43.7520000  30.1090000  -1.8000000
  45.0470000  30.2300000  -2.9720000  45.6310000  29.3300000  -1.0860000
  45.1420000  28.7990000  -0.2660000  45.9450000  30.2970000  -0.6890000
  46.8840000  28.5340000  -1.5040000  46.6060000  27.5110000  -1.7680000
  47.5520000  28.4720000  -0.6430000  47.6340000  29.1860000  -2.6800000
  47.7500000  30.2520000  -2.4720000  47.0380000  29.1060000  -3.5910000
  49.0320000  28.5870000  -2.9200000  49.6180000  28.6690000  -2.0020000
  49.5340000  29.1960000  -3.6750000  49.0670000  27.1270000  -3.4040000
  48.6510000  26.4650000  -2.6420000  50.1150000  26.8470000  -3.5300000
  48.3210000  26.9120000  -4.7360000  48.2570000  27.8590000  -5.2760000
  47.3000000  26.5910000  -4.5190000  49.0230000  25.8850000  -5.6450000
  49.2750000  24.9990000  -5.0590000  49.9630000  26.3140000  -5.9980000
  48.1880000  25.4340000  -6.8590000  47.3990000  24.7660000  -6.5080000
  48.8320000  24.8430000  -7.5130000  47.5350000  26.5530000  -7.6960000
  46.8570000  27.1360000  -7.0700000  46.9240000  26.0720000  -8.4620000
  48.5530000  27.4910000  -8.3740000  49.2200000  26.9000000  -9.0040000
  49.1700000  27.9700000  -7.6110000  47.8960000  28.5860000  -9.2380000
  48.6810000  29.2440000  -9.6170000  47.2390000  29.1910000  -8.6090000
  47.0880000  28.0300000 -10.4290000  46.2560000  27.4190000 -10.0750000
  47.7300000  27.3870000 -11.0350000  46.5290000  29.1330000 -11.2990000
  45.9700000  30.1240000 -10.8610000  46.7470000  28.8990000 -12.6110000
  46.2280000  29.8300000 -13.6090000  46.9640000  29.8920000 -14.4160000
  46.1020000  30.8320000 -13.1920000  44.8920000  29.3160000 -14.2020000
  45.0870000  28.3280000 -14.6280000  44.3520000  30.2790000 -15.2910000
  45.0350000  31.1180000 -15.4490000  43.3910000  30.6880000 -14.9690000
  44.1480000  29.5820000 -16.5510000  45.3150000  29.4650000 -17.6610000
  45.0640000  28.0160000 -18.3120000  45.4850000  26.7970000 -17.6630000
  46.4120000  26.9650000 -17.1090000  45.6920000  26.0510000 -18.4340000
  44.3800000  26.2730000 -16.7130000  44.1860000  27.0160000 -15.9370000
  44.7450000  25.3660000 -16.2300000  43.0290000  25.9280000 -17.2930000
  43.1520000  25.1080000 -18.5370000  43.6410000  25.7160000 -19.3000000
  42.1520000  24.8260000 -18.8710000  43.7480000  24.2200000 -18.3200000
  42.2590000  25.1400000 -16.2870000  42.1420000  25.7510000 -15.3910000
  42.8170000  24.2350000 -16.0420000  41.2800000  24.8960000 -16.7010000
  42.2480000  27.1630000 -17.5930000  42.1800000  27.7500000 -16.6760000
  41.2560000  26.8780000 -17.9490000  42.7820000  27.7290000 -18.3570000
  45.0550000  30.4920000 -18.7060000  46.6330000  29.4630000 -16.9730000
  43.9030000  29.2110000 -13.1390000  42.9030000  28.3170000 -13.2630000
  42.7440000  27.5970000 -14.2310000  41.9990000  28.2870000 -12.0560000
  42.2320000  29.1300000 -11.4020000  40.9680000  28.4140000 -12.3950000
  42.1240000  26.9650000 -11.2700000  41.3630000  26.9610000 -10.4870000
  41.9120000  26.1240000 -11.9340000  43.5160000  26.7810000 -10.6280000
  44.2780000  26.8190000 -11.4100000  43.7080000  27.6170000  -9.9530000
  43.6960000  25.4620000  -9.8500000  43.5990000  24.6190000 -10.5370000
  44.7160000  25.4430000  -9.4620000  42.6990000  25.2870000  -8.6840000
  42.7240000  26.1760000  -8.0510000  41.6890000  25.2140000  -9.0920000
  42.9530000  24.0320000  -7.8210000  42.1680000  23.9660000  -7.0640000
  42.8560000  23.1460000  -8.4530000  44.3240000  23.9750000  -7.1170000
  44.3980000  23.0260000  -6.5830000  45.1090000  23.9750000  -7.8760000
  44.5370000  25.1460000  -6.1790000  44.2040000  26.1090000  -6.5570000
  45.1090000  25.0950000  -4.9800000  45.2140000  26.0150000  -4.4100000
  45.6340000  23.8560000  -4.2810000  45.0630000  22.9690000  -4.5650000
  46.6730000  23.6890000  -4.5710000  45.5910000  24.0110000  -2.7490000
  45.9980000  23.1060000  -2.2930000  46.2360000  24.8420000  -2.4570000
  44.1650000  24.2490000  -2.2170000  43.7860000  25.1990000  -2.6000000
  43.5130000  23.4640000  -2.6060000  44.0600000  24.2540000  -0.6820000
  43.0130000  24.4140000  -0.4150000  44.3440000  23.2730000  -0.2960000
  44.9120000  25.3360000   0.0070000  45.9710000  25.0970000  -0.1030000
  44.7350000  26.3020000  -0.4710000  44.5580000  25.4420000   1.5000000
  43.5070000  25.7240000   1.5960000  44.6780000  24.4630000   1.9680000
  45.4220000  26.4650000   2.2550000  46.4770000  26.2070000   2.1390000
  45.2750000  27.4540000   1.8160000  45.0710000  26.5060000   3.7520000
  45.7090000  27.2230000   4.2720000  45.2180000  25.5230000   4.2050000
  44.0300000  26.8020000   3.8960000 -28.9890000 -47.4980000  -0.3250000
 -29.1180000 -48.4820000  -0.7810000 -29.7360000 -46.8190000  -0.7410000
 -29.1620000 -47.5880000   0.7490000 -27.5710000 -46.9760000  -0.5950000
 -27.4330000 -46.8720000  -1.6740000 -26.8460000 -47.7090000  -0.2350000
 -27.3160000 -45.6270000   0.0980000 -27.5070000 -45.7450000   1.1670000
 -28.0340000 -44.8960000  -0.2780000 -25.8780000 -45.0960000  -0.0830000
 -25.1790000 -45.8530000   0.2790000 -25.7430000 -44.2180000   0.5510000
 -25.4940000 -44.7280000  -1.5310000 -25.6340000 -45.5990000  -2.1740000
 -24.4290000 -44.4870000  -1.5510000 -26.2770000 -43.5310000  -2.1090000
 -26.1810000 -42.6830000  -1.4280000 -27.3380000 -43.7770000  -2.1800000
 -25.7590000 -43.1020000  -3.4950000 -24.6890000 -42.8930000  -3.4260000
 -26.2500000 -42.1690000  -3.7810000 -26.0060000 -44.1470000  -4.6000000
 -27.0810000 -44.2970000  -4.7220000 -25.5750000 -45.1060000  -4.3080000
 -25.3910000 -43.7190000  -5.9450000 -24.3140000 -43.5890000  -5.8190000
 -25.8120000 -42.7550000  -6.2380000 -25.6520000 -44.7580000  -7.0520000
 -26.7250000 -44.8150000  -7.2450000 -25.3390000 -45.7420000  -6.6950000
 -24.9110000 -44.4600000  -8.3700000 -25.1690000 -45.2340000  -9.0950000
 -23.8350000 -44.5250000  -8.1970000 -25.2410000 -43.0790000  -8.9660000
 -24.9030000 -42.2970000  -8.2820000 -26.3230000 -42.9780000  -9.0750000
 -24.5700000 -42.8640000 -10.3330000 -24.9180000 -43.6270000 -11.0330000
 -23.4900000 -42.9830000 -10.2270000 -24.8730000 -41.4650000 -10.9000000
 -24.5160000 -40.7190000 -10.1870000 -25.9510000 -41.3230000 -10.9930000
 -24.1870000 -41.2140000 -12.2570000 -23.1630000 -41.5920000 -12.2240000
 -24.1270000 -40.1390000 -12.4390000 -24.9230000 -41.8390000 -13.4170000
 -26.0550000 -41.5220000 -13.7330000 -24.1660000 -42.7320000 -14.0910000
 -24.6390000 -43.2640000 -15.3670000 -23.7570000 -43.5070000 -15.9640000
 -25.2070000 -42.5000000 -15.9040000 -25.4820000 -44.5630000 -15.2210000
 -24.9070000 -45.2990000 -14.6530000 -25.7910000 -45.1820000 -16.6050000
 -26.6140000 -45.8920000 -16.4950000 -24.9180000 -45.7210000 -16.9820000
 -26.1570000 -44.1480000 -17.5620000 -27.2670000 -44.4040000 -18.7030000
 -28.6350000 -44.4670000 -17.8640000 -29.1760000 -43.2850000 -17.2500000
 -29.1980000 -42.4640000 -17.9710000 -28.5330000 -42.9970000 -16.4140000
 -30.6040000 -43.5860000 -16.7400000 -30.9880000 -42.6940000 -16.2430000
 -30.5630000 -44.3940000 -16.0080000 -31.6570000 -43.9810000 -17.7510000
 -31.4460000 -45.3700000 -18.2560000 -30.4840000 -45.4050000 -18.7700000
 -32.2540000 -45.6200000 -18.9460000 -31.4430000 -46.0530000 -17.4060000
 -32.9920000 -43.9400000 -17.0890000 -33.1700000 -42.9200000 -16.7440000
 -32.9910000 -44.6350000 -16.2480000 -33.7510000 -44.2230000 -17.8190000
 -31.6830000 -43.0430000 -18.9110000 -31.8700000 -42.0360000 -18.5350000
 -32.4900000 -43.3430000 -19.5820000 -30.7220000 -43.0950000 -19.4240000
 -27.3060000 -43.2100000 -19.5930000 -27.0390000 -45.7400000 -19.3160000
 -26.7560000 -44.2800000 -14.5720000 -26.9480000 -44.6510000 -13.2920000
 -26.1270000 -45.2600000 -12.6280000 -28.3110000 -44.2310000 -12.7860000
 -28.4360000 -43.1600000 -12.9600000 -29.0700000 -44.7460000 -13.3780000
 -28.5150000 -44.5420000 -11.2870000 -28.3000000 -45.5980000 -11.1100000
 -27.8030000 -43.9590000 -10.6990000 -29.9510000 -44.2460000 -10.8080000
 -30.1630000 -43.1790000 -10.9030000 -30.6510000 -44.7710000 -11.4620000
 -30.2010000 -44.7120000  -9.3590000 -31.2750000 -44.7020000  -9.1610000
 -29.8770000 -45.7510000  -9.2650000 -29.4890000 -43.8720000  -8.2800000
 -29.5020000 -44.4350000  -7.3440000 -28.4410000 -43.7210000  -8.5470000
 -30.1740000 -42.5140000  -8.0410000 -30.1490000 -41.9180000  -8.9560000
 -31.2230000 -42.6900000  -7.7970000 -29.5220000 -41.7150000  -6.8980000
 -29.3820000 -42.3640000  -6.0310000 -28.5270000 -41.3930000  -7.2140000
 -30.3660000 -40.5030000  -6.5600000 -30.3940000 -39.7420000  -7.3350000
 -31.0770000 -40.3130000  -5.4500000 -31.6500000 -39.3960000  -5.3510000
 -31.1610000 -41.2330000  -4.2460000 -30.3940000 -42.0110000  -4.2620000
 -30.9690000 -40.6400000  -3.3490000 -32.5580000 -41.8690000  -4.0970000
 -32.6360000 -42.3290000  -3.1090000 -33.3100000 -41.0780000  -4.1290000
 -32.8980000 -42.9250000  -5.1700000 -33.9320000 -43.2480000  -5.0270000
 -32.8560000 -42.4510000  -6.1530000 -31.9770000 -44.1650000  -5.1880000
 -32.3070000 -44.8290000  -5.9900000 -30.9620000 -43.8570000  -5.4480000
 -31.9170000 -44.9570000  -3.8660000 -31.2550000 -45.8160000  -4.0010000
 -31.4580000 -44.3350000  -3.0950000 -33.2860000 -45.4480000  -3.3540000
 -33.1360000 -45.9910000  -2.4190000 -33.9040000 -44.5800000  -3.1150000
 -34.0600000 -46.3430000  -4.3430000 -35.0230000 -46.6050000  -3.8990000
 -34.2690000 -45.7730000  -5.2500000 -33.3290000 -47.6350000  -4.7390000
 -33.9550000 -48.2250000  -5.4120000 -33.1070000 -48.2400000  -3.8570000
 -32.3920000 -47.4120000  -5.2550000 -21.6000000 -15.8640000   0.9130000
 -22.1870000 -15.7800000   1.8300000 -21.0890000 -16.8280000   0.9290000
 -22.2870000 -15.8450000   0.0640000 -20.5850000 -14.7120000   0.8250000
 -19.9820000 -14.7070000   1.7360000 -21.1220000 -13.7620000   0.7900000
 -19.6430000 -14.8090000  -0.3910000 -19.0670000 -15.7340000  -0.3280000
 -18.9310000 -13.9830000  -0.3430000 -20.3810000 -14.7540000  -1.7430000
 -20.9950000 -13.8520000  -1.7670000 -21.0480000 -15.6130000  -1.8360000
 -19.4030000 -14.7460000  -2.9360000 -18.7560000 -15.6230000  -2.8700000
 -18.7590000 -13.8670000  -2.8670000 -20.1000000 -14.7530000  -4.3120000
 -20.6580000 -15.6850000  -4.4240000 -19.3340000 -14.7430000  -5.0900000
 -21.0550000 -13.5640000  -4.5300000 -20.5190000 -12.6270000  -4.3630000
 -21.8660000 -13.6090000  -3.8010000 -21.6550000 -13.5490000  -5.9450000
 -22.1280000 -14.5150000  -6.1310000 -20.8510000 -13.4310000  -6.6740000
 -22.6880000 -12.4160000  -6.1280000 -22.2280000 -11.4690000  -5.8400000
 -23.5340000 -12.5820000  -5.4570000 -23.2020000 -12.2920000  -7.5770000
 -22.3480000 -12.0890000  -8.2260000 -23.8520000 -11.4180000  -7.6500000
 -23.9870000 -13.5310000  -8.0720000 -25.0550000 -13.3080000  -8.0190000
 -23.8250000 -14.3780000  -7.4020000 -23.6430000 -13.9850000  -9.5070000
 -23.8810000 -13.1840000 -10.2100000 -24.2770000 -14.8370000  -9.7600000
 -22.1640000 -14.3920000  -9.6770000 -21.8820000 -15.0840000  -8.8810000
 -21.5370000 -13.5040000  -9.5760000 -21.8740000 -15.0510000 -11.0370000
 -22.2750000 -14.4300000 -11.8410000 -22.3940000 -16.0110000 -11.0790000
 -20.3620000 -15.2630000 -11.2670000 -19.9040000 -15.6680000 -10.3610000
 -19.8840000 -14.3060000 -11.4870000 -20.0910000 -16.2170000 -12.4050000
 -19.4300000 -17.2310000 -12.2700000 -20.6470000 -15.8200000 -13.5710000
 -20.7890000 -16.8080000 -14.6400000 -20.0040000 -17.5670000 -14.5840000
 -20.6820000 -16.2890000 -15.5960000 -22.1870000 -17.4820000 -14.5890000
 -22.1520000 -18.3860000 -15.2030000 -23.2960000 -16.5420000 -15.1100000
 -23.0640000 -15.5140000 -14.8210000 -24.2540000 -16.8190000 -14.6630000
 -23.4210000 -16.6590000 -16.5550000 -23.3140000 -15.3780000 -17.5370000
 -21.7230000 -15.1660000 -17.6860000 -20.9240000 -16.0560000 -18.4950000
 -21.5570000 -16.6880000 -19.1250000 -20.3540000 -16.7100000 -17.8310000
 -19.9560000 -15.2290000 -19.3720000 -19.2880000 -15.9180000 -19.8890000
 -19.3520000 -14.5840000 -18.7310000 -20.5440000 -14.3400000 -20.4410000
 -21.4720000 -15.1010000 -21.3290000 -20.9370000 -15.9540000 -21.7470000
 -21.8190000 -14.4370000 -22.1220000 -22.3170000 -15.4370000 -20.7260000
 -21.2670000 -13.1730000 -19.8630000 -20.5800000 -12.6220000 -19.2190000
 -22.1130000 -13.5460000 -19.2830000 -21.6120000 -12.5350000 -20.6780000
 -19.4370000 -13.8020000 -21.2820000 -18.7770000 -13.2130000 -20.6430000
 -19.8660000 -13.1710000 -22.0610000 -18.8950000 -14.6400000 -21.7240000
 -23.8790000 -15.7520000 -18.8630000 -23.8780000 -14.1860000 -16.8440000
 -22.5130000 -17.8100000 -13.2130000 -23.0940000 -18.9860000 -12.9100000
 -23.3280000 -19.8780000 -13.7070000 -23.4860000 -19.0300000 -11.4530000
 -24.1390000 -18.1750000 -11.2650000 -24.0640000 -19.9360000 -11.2570000
 -22.2630000 -18.9540000 -10.5130000 -21.7890000 -19.9350000 -10.4410000
 -21.5220000 -18.2670000 -10.9270000 -22.6520000 -18.4480000  -9.1120000
 -23.1790000 -17.4960000  -9.2090000 -23.3420000 -19.1550000  -8.6470000
 -21.4250000 -18.2430000  -8.2060000 -20.9240000 -19.2020000  -8.0550000
 -20.7160000 -17.5830000  -8.7090000 -21.7830000 -17.6270000  -6.8390000
 -20.8570000 -17.4140000  -6.3010000 -22.2890000 -16.6720000  -6.9970000
 -22.6730000 -18.5350000  -5.9700000 -23.6310000 -18.7020000  -6.4670000
 -22.1930000 -19.5090000  -5.8550000 -22.9330000 -17.9290000  -4.5800000
 -21.9780000 -17.7010000  -4.1010000 -23.4660000 -16.9820000  -4.6870000
 -23.7060000 -18.8860000  -3.6980000 -23.0910000 -19.5100000  -3.0540000
 -25.0300000 -18.9770000  -3.6130000 -25.4650000 -19.6850000  -2.9120000
 -26.0340000 -18.2300000  -4.4680000 -25.5500000 -17.5570000  -5.1780000
 -26.5820000 -18.9670000  -5.0590000 -27.0700000 -17.4490000  -3.6320000
 -27.9380000 -17.2710000  -4.2710000 -27.4150000 -18.0630000  -2.7980000
 -26.5970000 -16.0730000  -3.1160000 -26.2590000 -15.4860000  -3.9730000
 -27.4590000 -15.5530000  -2.6930000 -25.4840000 -16.1200000  -2.0500000
 -25.8080000 -16.7480000  -1.2170000 -24.5870000 -16.5780000  -2.4730000
 -25.1010000 -14.7310000  -1.5070000 -25.9600000 -14.2950000  -0.9920000
 -24.3080000 -14.8580000  -0.7660000 -24.6080000 -13.7660000  -2.6040000
 -23.8610000 -14.2810000  -3.2110000 -25.4360000 -13.5030000  -3.2660000
 -23.9870000 -12.4730000  -2.0430000 -23.1490000 -12.7290000  -1.3910000
 -23.5830000 -11.8870000  -2.8720000 -24.9870000 -11.6040000  -1.2640000
 -24.5030000 -10.6840000  -0.9270000 -25.3660000 -12.1300000  -0.3850000
 -25.8380000 -11.3360000  -1.8940000 -39.4130000 -37.4780000  -1.6700000
 -40.0930000 -38.3140000  -1.8430000 -39.6780000 -36.6720000  -2.3580000
 -39.5540000 -37.1260000  -0.6460000 -37.9600000 -37.9250000  -1.8920000
 -37.8500000 -38.2670000  -2.9230000 -37.7530000 -38.7810000  -1.2450000
 -36.9170000 -36.8290000  -1.6050000 -35.9220000 -37.2530000  -1.7530000
 -36.9820000 -36.5450000  -0.5530000 -37.0550000 -35.5570000  -2.4680000
 -36.2450000 -34.8740000  -2.2050000 -37.9860000 -35.0460000  -2.2120000
 -37.0230000 -35.7900000  -3.9930000 -37.0670000 -34.8150000  -4.4830000
 -37.9150000 -36.3400000  -4.3000000 -35.7680000 -36.5420000  -4.4820000
 -35.8390000 -37.5960000  -4.2030000 -34.8870000 -36.1290000  -3.9850000
 -35.5780000 -36.4150000  -6.0050000 -35.5430000 -35.3540000  -6.2620000
 -36.4440000 -36.8330000  -6.5230000 -34.2800000 -37.0710000  -6.5230000
 -33.4330000 -36.6540000  -5.9750000 -34.1500000 -36.7900000  -7.5700000
 -34.2200000 -38.6100000  -6.4260000 -34.1770000 -38.9150000  -5.3780000
 -33.2930000 -38.9420000  -6.8980000 -35.4200000 -39.2930000  -7.1070000
 -35.5910000 -38.8410000  -8.0860000 -36.3100000 -39.1010000  -6.5050000
 -35.2750000 -40.8160000  -7.2820000 -36.2490000 -41.2120000  -7.5760000
 -35.0290000 -41.2760000  -6.3220000 -34.2130000 -41.2020000  -8.3370000
 -33.2230000 -41.0440000  -7.9040000 -34.2840000 -40.5370000  -9.2000000
 -34.3180000 -42.6660000  -8.8170000 -34.7140000 -43.2890000  -8.0120000
 -33.3120000 -43.0340000  -9.0290000 -35.1640000 -42.8540000 -10.0970000
 -35.2250000 -43.9200000 -10.3240000 -34.6450000 -42.3780000 -10.9310000
 -36.5910000 -42.2760000  -9.9960000 -36.5440000 -41.1980000  -9.8230000
 -37.1080000 -42.7340000  -9.1510000 -37.4060000 -42.4990000 -11.2430000
 -38.4140000 -43.1870000 -11.2800000 -36.9060000 -41.8340000 -12.3030000
 -37.6680000 -41.8200000 -13.5440000 -38.6100000 -41.2910000 -13.3820000
 -37.8930000 -42.8460000 -13.8470000 -36.8570000 -41.1250000 -14.6720000
 -37.5030000 -41.0020000 -15.5450000 -35.6380000 -41.9890000 -15.0850000
 -35.9850000 -42.9460000 -15.4820000 -35.0300000 -42.1830000 -14.1980000
 -34.7940000 -41.3340000 -16.0810000 -35.3210000 -40.9570000 -17.5640000
 -35.8890000 -39.4630000 -17.3770000 -34.9900000 -38.3500000 -17.1910000
 -34.1220000 -38.6760000 -16.6120000 -35.5060000 -37.5750000 -16.6180000
 -34.5400000 -37.7680000 -18.5510000 -34.0050000 -38.5320000 -19.1160000
 -33.8520000 -36.9430000 -18.3580000 -35.5900000 -37.2090000 -19.4770000
 -36.3850000 -38.2950000 -20.1210000 -35.6970000 -38.9630000 -20.6420000
 -37.0900000 -37.8460000 -20.8210000 -36.9170000 -38.8390000 -19.3400000
 -36.5160000 -36.2820000 -18.7630000 -35.9140000 -35.4990000 -18.3000000
 -37.0650000 -36.8500000 -18.0110000 -37.2030000 -35.8490000 -19.4920000
 -34.9050000 -36.4400000 -20.5540000 -34.3360000 -35.6360000 -20.0840000
 -35.6600000 -36.0260000 -21.2240000 -34.2380000 -37.1130000 -21.0960000
 -34.1480000 -40.9220000 -18.4760000 -36.4640000 -41.8470000 -17.9080000
 -36.3780000 -39.8190000 -14.2380000 -37.2430000 -38.7920000 -14.2010000
 -38.4290000 -38.8870000 -14.4750000 -36.5680000 -37.5050000 -13.7810000
 -35.6110000 -37.7320000 -13.3080000 -36.3540000 -36.9190000 -14.6780000
 -37.4270000 -36.6600000 -12.8220000 -36.9480000 -35.6880000 -12.6910000
 -38.4020000 -36.4810000 -13.2800000 -37.6270000 -37.3060000 -11.4380000
 -38.1260000 -38.2710000 -11.5500000 -36.6540000 -37.4880000 -10.9770000
 -38.4670000 -36.4000000 -10.5210000 -37.9600000 -35.4400000 -10.4010000
 -39.4310000 -36.2040000 -10.9950000 -38.7070000 -37.0220000  -9.1350000
 -39.2270000 -37.9750000  -9.2570000 -37.7470000 -37.2290000  -8.6580000
 -39.5370000 -36.0850000  -8.2360000 -39.0050000 -35.1370000  -8.1320000
 -40.4930000 -35.8690000  -8.7170000 -39.7940000 -36.6630000  -6.8320000
 -38.8350000 -36.8380000  -6.3420000 -40.3180000 -35.9090000  -6.2400000
 -40.6480000 -37.9150000  -6.8910000 -41.6480000 -37.7590000  -7.2880000
 -40.3000000 -39.1370000  -6.5000000 -41.0250000 -39.9410000  -6.5960000
 -38.9610000 -39.5590000  -5.9270000 -38.4370000 -40.1670000  -6.6670000
 -38.3270000 -38.7000000  -5.6980000 -39.1320000 -40.3970000  -4.6480000
 -39.6160000 -39.7890000  -3.8810000 -39.7860000 -41.2470000  -4.8530000
 -37.7810000 -40.9140000  -4.1170000 -37.3210000 -41.5550000  -4.8720000
 -37.1000000 -40.0770000  -3.9520000 -37.9500000 -41.7030000  -2.8060000
 -38.3250000 -41.0370000  -2.0270000 -38.7000000 -42.4840000  -2.9530000
 -36.6360000 -42.3530000  -2.3370000 -36.2600000 -43.0110000  -3.1230000
 -35.8870000 -41.5760000  -2.1690000 -36.8430000 -43.1680000  -1.0460000
 -37.0810000 -42.4870000  -0.2270000 -37.7040000 -43.8270000  -1.1780000
 -35.6300000 -44.0320000  -0.6550000 -35.8880000 -44.6150000   0.2320000
 -35.4250000 -44.7470000  -1.4540000 -34.3630000 -43.2120000  -0.3600000
 -33.5490000 -43.8730000  -0.0530000 -34.5530000 -42.5000000   0.4450000
 -34.0390000 -42.6610000  -1.2460000 -17.7330000 -19.5950000   1.4180000
 -17.6480000 -19.6500000   2.5060000 -16.8900000 -19.0160000   1.0340000
 -17.6710000 -20.6110000   1.0230000 -19.0650000 -18.9310000   1.0320000
 -19.1180000 -17.9540000   1.5160000 -19.8890000 -19.5290000   1.4250000
 -19.2470000 -18.7390000  -0.4870000 -18.4460000 -18.0990000  -0.8630000
 -20.1860000 -18.2120000  -0.6680000 -19.2570000 -20.0570000  -1.2840000
 -20.0400000 -20.7140000  -0.9000000 -18.3000000 -20.5670000  -1.1520000
 -19.4940000 -19.8170000  -2.7840000 -18.8140000 -19.0320000  -3.1210000
 -20.5140000 -19.4620000  -2.9410000 -19.2550000 -21.0970000  -3.6100000
 -19.9090000 -21.8860000  -3.2340000 -18.2290000 -21.4350000  -3.4560000
 -19.5100000 -20.9270000  -5.1230000 -20.5860000 -20.8300000  -5.2840000
 -19.2020000 -21.8400000  -5.6360000 -18.8030000 -19.7160000  -5.7690000
 -19.2180000 -18.7980000  -5.3480000 -19.0340000 -19.7000000  -6.8360000
 -17.2710000 -19.6920000  -5.5810000 -17.0330000 -19.8210000  -4.5230000
 -16.8980000 -18.7020000  -5.8530000 -16.5190000 -20.7640000  -6.3970000
 -17.1940000 -21.5700000  -6.6910000 -15.7580000 -21.2110000  -5.7540000
 -15.8110000 -20.1890000  -7.6380000 -15.1960000 -20.9730000  -8.0860000
 -15.1240000 -19.4050000  -7.3110000 -16.7380000 -19.6040000  -8.7200000
 -16.1080000 -19.0630000  -9.4290000 -17.4200000 -18.8730000  -8.2810000
 -17.5370000 -20.6640000  -9.5040000 -18.2470000 -21.1710000  -8.8470000
 -16.8380000 -21.4160000  -9.8770000 -18.2850000 -20.0340000 -10.6970000
 -17.6260000 -19.3050000 -11.1730000 -19.1550000 -19.4790000 -10.3400000
 -18.7190000 -21.0710000 -11.7540000 -19.6720000 -21.5250000 -11.4740000
 -17.9750000 -21.8680000 -11.8160000 -18.8260000 -20.4340000 -13.1190000
 -19.8770000 -20.1030000 -13.6370000 -17.6120000 -20.2830000 -13.6890000
 -17.4580000 -19.5820000 -14.9590000 -16.4490000 -19.1620000 -14.9780000
 -18.1560000 -18.7430000 -15.0200000 -17.6150000 -20.5080000 -16.2000000
 -17.2290000 -19.9620000 -17.0650000 -19.0940000 -20.8780000 -16.4780000
 -19.7540000 -20.0720000 -16.1480000 -19.3460000 -21.7820000 -15.9180000
 -19.3390000 -21.1120000 -17.8940000 -19.6570000 -19.8970000 -18.9040000
 -19.0920000 -20.5010000 -20.2740000 -19.9370000 -21.2560000 -21.1570000
 -20.7590000 -20.6220000 -21.4980000 -20.3340000 -22.1230000 -20.6220000
 -19.0480000 -21.6820000 -22.3440000 -18.1920000 -22.2460000 -21.9720000
 -18.6720000 -20.7840000 -22.8350000 -19.6810000 -22.5270000 -23.4230000
 -20.1520000 -23.8370000 -22.8770000 -19.3060000 -24.3500000 -22.4180000
 -20.5460000 -24.4310000 -23.7030000 -20.9360000 -23.6580000 -22.1400000
 -20.8290000 -21.8170000 -24.0650000 -20.4710000 -20.8650000 -24.4620000
 -21.6090000 -21.6490000 -23.3210000 -21.2140000 -22.4400000 -24.8740000
 -18.6610000 -22.8080000 -24.4770000 -18.3220000 -21.8600000 -24.8980000
 -19.1220000 -23.4200000 -25.2530000 -17.8230000 -23.3420000 -24.0260000
 -21.1270000 -19.7330000 -19.0060000 -18.8130000 -18.7380000 -18.5340000
 -16.8420000 -21.7350000 -16.0370000 -15.4940000 -21.6600000 -16.0980000
 -14.8880000 -20.6500000 -16.4070000 -14.8150000 -22.9820000 -15.8140000
 -15.2920000 -23.7650000 -16.4070000 -13.7770000 -22.9070000 -16.1450000
 -14.8200000 -23.4020000 -14.3310000 -14.1390000 -24.2500000 -14.2300000
 -14.4190000 -22.5990000 -13.7100000 -16.2040000 -23.8280000 -13.8080000
 -16.8490000 -22.9520000 -13.7110000 -16.6670000 -24.4990000 -14.5340000
 -16.1110000 -24.5520000 -12.4540000 -15.4350000 -25.4040000 -12.5560000
 -15.6810000 -23.8780000 -11.7100000 -17.4840000 -25.0560000 -11.9680000
 -18.1040000 -24.2070000 -11.6720000 -17.9940000 -25.5500000 -12.7980000
 -17.3820000 -26.0650000 -10.8050000 -18.3870000 -26.3970000 -10.5350000
 -16.8450000 -26.9460000 -11.1630000 -16.6700000 -25.5420000  -9.5430000
 -16.5570000 -26.3770000  -8.8470000 -15.6640000 -25.2150000  -9.8150000
 -17.4200000 -24.3900000  -8.9030000 -17.7610000 -23.6220000  -9.5920000
 -17.7110000 -24.2720000  -7.6110000 -18.2720000 -23.4040000  -7.2730000
 -17.2890000 -25.2240000  -6.5080000 -16.4230000 -25.8150000  -6.8140000
 -16.9680000 -24.6500000  -5.6360000 -18.4290000 -26.1840000  -6.1070000
 -18.6930000 -26.7900000  -6.9760000 -18.0570000 -26.8770000  -5.3490000
 -19.7070000 -25.4890000  -5.5840000 -20.1150000 -24.8580000  -6.3760000
 -20.4620000 -26.2510000  -5.3730000 -19.5040000 -24.6280000  -4.3190000
 -18.7400000 -23.8730000  -4.5130000 -20.4340000 -24.0950000  -4.1090000
 -19.1120000 -25.4420000  -3.0710000 -19.9170000 -26.1410000  -2.8320000
 -18.2170000 -26.0280000  -3.2930000 -18.8340000 -24.5430000  -1.8490000
 -17.9690000 -23.9130000  -2.0640000 -19.6830000 -23.8770000  -1.6870000
 -18.5700000 -25.3290000  -0.5480000 -18.3120000 -24.6190000   0.2410000
 -19.4870000 -25.8320000  -0.2360000 -17.4400000 -26.3670000  -0.6760000
 -17.2410000 -26.8380000   0.2890000 -16.5210000 -25.8900000  -1.0230000
 -17.7110000 -27.1550000  -1.3820000 -11.4180000  53.4840000  -3.7070000
 -12.3550000  54.0360000  -3.8090000 -11.2940000  53.2050000  -2.6590000
 -11.4880000  52.5720000  -4.3040000 -10.2360000  54.3440000  -4.1790000
 -10.2070000  55.2650000  -3.5930000 -10.3950000  54.6280000  -5.2210000
  -8.8890000  53.6090000  -4.0460000  -8.9090000  52.7050000  -4.6580000
  -8.7470000  53.3020000  -3.0080000  -7.7160000  54.5030000  -4.4910000
  -7.6810000  55.3900000  -3.8540000  -7.9030000  54.8480000  -5.5100000
  -6.3430000  53.8030000  -4.4600000  -5.6010000  54.4840000  -4.8830000
  -6.3820000  52.9250000  -5.1080000  -5.8880000  53.3850000  -3.0460000
  -6.5420000  52.5970000  -2.6690000  -5.9920000  54.2370000  -2.3710000
  -4.4230000  52.9030000  -2.9840000  -4.2030000  52.5890000  -1.9620000
  -3.7640000  53.7430000  -3.2110000  -4.1030000  51.7450000  -3.9480000
  -4.2730000  52.0800000  -4.9740000  -4.7820000  50.9120000  -3.7530000
  -2.6470000  51.2570000  -3.8090000  -2.4900000  50.9080000  -2.7860000
  -1.9650000  52.0960000  -3.9620000  -2.2880000  50.1100000  -4.7770000
  -2.9250000  49.2540000  -4.5460000  -1.2580000  49.8010000  -4.5880000
  -2.4470000  50.4370000  -6.2780000  -3.4920000  50.6760000  -6.4880000
  -2.2110000  49.5370000  -6.8500000  -1.5480000  51.5920000  -6.7660000
  -0.5020000  51.2840000  -6.7120000  -1.6650000  52.4540000  -6.1050000
  -1.8710000  52.0570000  -8.1980000  -1.2250000  52.9040000  -8.4380000
  -2.9000000  52.4230000  -8.2250000  -1.6930000  50.9740000  -9.2810000
  -2.3480000  50.1260000  -9.0690000  -0.6630000  50.6130000  -9.2670000
  -2.0310000  51.5370000 -10.6780000  -1.3970000  52.4010000 -10.8910000
  -3.0640000  51.8890000 -10.6890000  -1.8610000  50.5410000 -11.8020000
  -1.4490000  49.4020000 -11.6720000  -2.2080000  51.0900000 -12.9850000
  -2.1680000  50.2880000 -14.2020000  -1.4090000  49.5050000 -14.1290000
  -1.8820000  50.9500000 -15.0230000  -3.5580000  49.6790000 -14.5410000
  -3.5060000  49.1910000 -15.5170000  -4.6370000  50.7840000 -14.6130000
  -4.2650000  51.6010000 -15.2370000  -4.8460000  51.1750000 -13.6140000
  -5.8640000  50.2690000 -15.2030000  -6.9720000  51.2720000 -15.8130000
  -6.2690000  51.7580000 -17.1760000  -6.2310000  50.9130000 -18.3420000
  -6.2810000  49.8640000 -18.0390000  -5.2800000  51.0690000 -18.8580000
  -7.4100000  51.2560000 -19.2850000  -8.3500000  51.1120000 -18.7500000
  -7.3900000  50.5630000 -20.1270000  -7.4710000  52.6400000 -19.8890000
  -7.8210000  53.6720000 -18.8680000  -8.7730000  53.3980000 -18.4110000
  -7.8960000  54.6430000 -19.3600000  -7.0340000  53.6890000 -18.1130000
  -6.1750000  53.0150000 -20.5320000  -5.9180000  52.2540000 -21.2710000
  -5.4080000  53.0720000 -19.7580000  -6.2940000  53.9870000 -21.0130000
  -8.5320000  52.6590000 -20.9380000  -8.2730000  51.9330000 -21.7100000
  -8.5820000  53.6620000 -21.3650000  -9.4850000  52.3980000 -20.4750000
  -8.1940000  50.4900000 -16.1460000  -7.1010000  52.4520000 -14.9150000
  -3.9640000  48.7090000 -13.5360000  -3.4050000  47.4820000 -13.5560000
  -2.5230000  47.1430000 -14.3280000  -4.0150000  46.5640000 -12.5250000
  -5.1020000  46.6190000 -12.6200000  -3.7130000  45.5340000 -12.7240000
  -3.6020000  46.9700000 -11.0980000  -2.5390000  46.7650000 -10.9510000
  -3.7510000  48.0450000 -10.9710000  -4.4340000  46.2390000 -10.0330000
  -5.4910000  46.4410000 -10.2170000  -4.2860000  45.1610000 -10.1270000
  -4.0780000  46.6900000  -8.6050000  -3.0850000  46.3210000  -8.3400000
  -4.0460000  47.7810000  -8.5660000  -5.1140000  46.1870000  -7.5860000
  -6.0920000  46.5870000  -7.8610000  -5.1830000  45.0990000  -7.6440000
  -4.7740000  46.6080000  -6.1430000  -3.7980000  46.2020000  -5.8710000
  -4.6920000  47.6960000  -6.1000000  -5.8160000  46.1380000  -5.1070000
  -5.8070000  45.0470000  -5.0610000  -5.5260000  46.4920000  -4.1150000
  -7.2170000  46.6110000  -5.4380000  -7.8610000  45.8580000  -5.8850000
  -7.7000000  47.8300000  -5.2200000  -8.7280000  48.0470000  -5.4970000
  -6.9380000  48.9940000  -4.6150000  -5.9650000  48.6800000  -4.2300000
  -6.7510000  49.7370000  -5.3930000  -7.7310000  49.6800000  -3.4860000
  -7.1380000  50.5160000  -3.1070000  -8.6540000  50.1010000  -3.8900000
  -8.0670000  48.7390000  -2.3140000  -8.6810000  47.9090000  -2.6700000
  -7.1390000  48.3170000  -1.9250000  -8.8070000  49.4690000  -1.1790000
  -8.1770000  50.2880000  -0.8260000  -9.7310000  49.9050000  -1.5640000
  -9.1380000  48.5210000  -0.0100000  -9.7890000  47.7240000  -0.3740000
  -8.2200000  48.0430000   0.3400000  -9.8310000  49.2150000   1.1810000
 -10.8110000  49.5750000   0.8610000 -10.0050000  48.4700000   1.9600000
  -9.0470000  50.3950000   1.7920000  -8.9680000  51.2050000   1.0640000
  -9.6090000  50.7890000   2.6410000  -7.6400000  50.0050000   2.2730000
  -7.1660000  50.8550000   2.7690000  -7.0080000  49.7020000   1.4360000
  -7.6950000  49.1810000   2.9870000  10.6820000 -46.8610000  -0.0090000
  10.7760000 -45.7980000   0.2220000  10.7780000 -47.4260000   0.9200000
   9.6890000 -47.0360000  -0.4290000  11.7720000 -47.2750000  -1.0060000
  12.7490000 -47.0530000  -0.5710000  11.6700000 -46.6720000  -1.9100000
  11.7180000 -48.7650000  -1.3850000  10.7500000 -48.9970000  -1.8340000
  11.8200000 -49.3730000  -0.4830000  12.8430000 -49.1140000  -2.3740000
  13.7980000 -48.8190000  -1.9350000  12.7100000 -48.5260000  -3.2850000
  12.8980000 -50.6130000  -2.7200000  11.9500000 -50.9240000  -3.1620000
  13.0230000 -51.1810000  -1.7960000  14.0510000 -50.9730000  -3.6780000
  14.0920000 -52.0600000  -3.7730000  14.9990000 -50.6540000  -3.2390000
  13.9000000 -50.3560000  -5.0830000  13.9230000 -49.2660000  -5.0170000
  12.9310000 -50.6430000  -5.4950000  15.0110000 -50.8230000  -6.0420000
  15.0240000 -51.9140000  -6.0660000  15.9800000 -50.4910000  -5.6630000
  14.8120000 -50.2950000  -7.4750000  14.8450000 -49.2030000  -7.4710000
  13.8230000 -50.5950000  -7.8260000  15.8890000 -50.8410000  -8.4330000
  15.8680000 -51.9320000  -8.4050000  16.8730000 -50.5310000  -8.0740000
  15.7310000 -50.3820000  -9.8970000  16.5320000 -50.8360000 -10.4840000
  15.8630000 -49.2990000  -9.9510000  14.3710000 -50.7610000 -10.5180000
  13.5930000 -50.1190000 -10.1010000  14.1250000 -51.7890000 -10.2420000
  14.3420000 -50.6570000 -12.0560000  13.3310000 -50.8890000 -12.4000000
  15.0070000 -51.4130000 -12.4770000  14.7520000 -49.2740000 -12.5940000
  15.7930000 -49.0800000 -12.3300000  14.1390000 -48.5060000 -12.1180000
  14.6030000 -49.1820000 -14.1280000  13.5660000 -49.3650000 -14.4170000
  15.2160000 -49.9530000 -14.5990000  15.0310000 -47.8430000 -14.6820000
  15.2210000 -46.8520000 -14.0000000  15.1540000 -47.8870000 -16.0250000
  15.7720000 -46.7510000 -16.7030000  15.7390000 -45.8480000 -16.0890000
  15.2040000 -46.5490000 -17.6150000  17.2360000 -47.0840000 -17.0910000
  17.7180000 -46.1550000 -17.4040000  17.2600000 -48.0930000 -18.2640000
  16.9170000 -47.6120000 -19.1840000  16.5850000 -48.9190000 -18.0290000
  18.5990000 -48.6230000 -18.4620000  18.8480000 -49.9230000 -19.3750000
  18.0570000 -51.0560000 -18.5620000  18.5710000 -51.5740000 -17.3220000
  19.2990000 -50.8740000 -16.9040000  19.0720000 -52.5270000 -17.5080000
  17.4020000 -51.7300000 -16.3200000  17.0050000 -50.7430000 -16.0770000
  17.7970000 -52.1720000 -15.4030000  16.2190000 -52.5850000 -16.7240000
  15.3060000 -51.8360000 -17.6410000  14.9740000 -50.9220000 -17.1460000
  14.4530000 -52.4720000 -17.8840000  15.8600000 -51.5910000 -18.5480000
  16.6520000 -53.8460000 -17.3970000  17.3210000 -54.3900000 -16.7280000
  17.1670000 -53.5800000 -18.3210000  15.7670000 -54.4450000 -17.6200000
  15.4390000 -52.9580000 -15.5040000  16.0870000 -53.5280000 -14.8360000
  14.5900000 -53.5710000 -15.8100000  15.0880000 -52.0510000 -15.0110000
  18.1730000 -49.7270000 -20.6880000  20.3000000 -50.2430000 -19.3530000
  17.9260000 -47.6750000 -15.9500000  19.2160000 -47.3480000 -15.7290000
  19.8150000 -46.4320000 -16.2740000  19.8670000 -48.2910000 -14.7400000
  19.1160000 -48.9650000 -14.3220000  20.5740000 -48.9130000 -15.2930000
  20.6130000 -47.5530000 -13.6100000  21.2480000 -48.2720000 -13.0870000
  21.2800000 -46.8060000 -14.0460000  19.6950000 -46.8730000 -12.5760000
  20.3140000 -46.2490000 -11.9280000  18.9970000 -46.2080000 -13.0880000
  18.9190000 -47.8800000 -11.7020000  18.2030000 -48.4330000 -12.3130000
  19.6250000 -48.6080000 -11.2950000  18.1790000 -47.2170000 -10.5230000
  17.8340000 -47.9990000  -9.8440000  18.8830000 -46.5970000  -9.9650000
  16.9720000 -46.3600000 -10.9570000  17.2890000 -45.6430000 -11.7170000
  16.2160000 -47.0020000 -11.4140000  16.3380000 -45.5800000  -9.7920000
  17.0920000 -44.9050000  -9.3820000  15.5300000 -44.9660000 -10.1940000
  15.7710000 -46.4910000  -8.7210000  15.1300000 -47.2870000  -9.0890000
  16.0160000 -46.4050000  -7.4170000  15.5610000 -47.1310000  -6.7470000
  16.8650000 -45.3530000  -6.7280000  16.9320000 -44.4450000  -7.3310000
  16.3840000 -45.0560000  -5.7940000  18.2910000 -45.8610000  -6.4280000
  18.8120000 -46.0290000  -7.3730000  18.8380000 -45.0760000  -5.9010000
  18.3560000 -47.1570000  -5.5920000  17.9380000 -47.9810000  -6.1730000
  19.4050000 -47.3960000  -5.4050000  17.6130000 -47.0570000  -4.2450000
  18.0200000 -46.2230000  -3.6700000  16.5580000 -46.8470000  -4.4340000
  17.7100000 -48.3560000  -3.4220000  17.4160000 -49.1940000  -4.0570000
  18.7440000 -48.5320000  -3.1200000  16.7930000 -48.3490000  -2.1840000
  15.7720000 -48.1640000  -2.5240000  16.8010000 -49.3430000  -1.7320000
  17.1430000 -47.3040000  -1.1050000  17.2260000 -46.3140000  -1.5570000
  16.3250000 -47.2530000  -0.3830000  18.4370000 -47.6250000  -0.3420000
  18.6310000 -46.8610000   0.4140000  19.2890000 -47.6620000  -1.0240000
  18.3450000 -48.5900000   0.1610000  21.8220000   4.4240000  -0.8910000
  21.6120000   4.6810000   0.1490000  22.8740000   4.1400000  -0.9690000
  21.2060000   3.5660000  -1.1700000  21.5220000   5.6240000  -1.7980000
  22.0980000   6.4850000  -1.4520000  20.4630000   5.8780000  -1.7110000
  21.8590000   5.3500000  -3.2720000  21.2520000   4.5140000  -3.6270000
  22.9070000   5.0550000  -3.3470000  21.6070000   6.5860000  -4.1590000
  22.3030000   7.3800000  -3.8800000  20.5980000   6.9580000  -3.9690000
  21.7400000   6.2960000  -5.6660000  21.4470000   7.1940000  -6.2140000
  21.0290000   5.5120000  -5.9330000  23.1560000   5.8660000  -6.1060000
  23.5100000   5.0580000  -5.4620000  23.8510000   6.7010000  -5.9920000
  23.1860000   5.3510000  -7.5560000  22.4510000   4.5480000  -7.6460000
  24.1630000   4.9090000  -7.7650000  22.8870000   6.4190000  -8.6230000
  23.7590000   7.0670000  -8.7370000  22.0460000   7.0410000  -8.3110000
  22.5330000   5.7700000  -9.9720000  21.6430000   5.1530000  -9.8320000
  23.3460000   5.1100000 -10.2810000  22.2710000   6.8030000 -11.0830000
  23.2040000   7.3250000 -11.3060000  21.5570000   7.5490000 -10.7270000
  21.7180000   6.1720000 -12.3720000  22.2820000   5.2700000 -12.6170000
  21.8630000   6.8770000 -13.1940000  20.2140000   5.8580000 -12.2660000
  19.6740000   6.7930000 -12.1030000  20.0150000   5.2170000 -11.4050000
  19.6700000   5.1780000 -13.5340000  19.9950000   4.1350000 -13.5540000
  20.0970000   5.6710000 -14.4100000  18.1300000   5.2500000 -13.5950000
  17.8160000   6.2950000 -13.6220000  17.7270000   4.8160000 -12.6780000
  17.5080000   4.5020000 -14.7900000  17.7880000   3.4480000 -14.7400000
  16.4190000   4.5470000 -14.7180000  17.9210000   5.0300000 -16.1450000
  18.5430000   6.0610000 -16.3490000  17.5360000   4.1860000 -17.1270000
  17.9970000   4.4380000 -18.4850000  17.8770000   5.4950000 -18.7340000
  17.3750000   3.8530000 -19.1680000  19.4780000   4.0010000 -18.6670000
  20.1180000   4.6000000 -18.0130000  19.9160000   4.2380000 -20.1360000
  19.9850000   5.3110000 -20.3360000  19.1540000   3.8150000 -20.7960000
  21.1840000   3.6000000 -20.4640000  22.6070000   4.2290000 -20.0320000
  23.5030000   2.9260000 -19.7390000  23.1740000   2.0350000 -18.6580000
  22.5990000   1.1970000 -19.0590000  22.5560000   2.5520000 -17.9200000
  24.4750000   1.5270000 -17.9940000  25.0880000   1.0180000 -18.7390000
  24.2160000   0.7990000 -17.2240000  25.3720000   2.5400000 -17.3250000
  24.5890000   3.4950000 -16.4810000  23.9070000   4.0400000 -17.1360000
  25.2800000   4.1920000 -16.0040000  24.0280000   2.9310000 -15.7340000
  26.3390000   1.8150000 -16.4480000  26.8780000   1.0890000 -17.0580000
  25.7890000   1.2970000 -15.6610000  27.0420000   2.5270000 -16.0140000
  26.1570000   3.3100000 -18.3360000  26.7080000   2.6010000 -18.9560000
  26.8460000   3.9850000 -17.8250000  25.4560000   3.8770000 -18.9500000
  23.1790000   4.9220000 -21.2190000  22.4570000   4.9830000 -18.7610000
  19.6010000   2.5830000 -18.3540000  19.9540000   2.2220000 -17.1050000
  20.2930000   3.0030000 -16.2300000  19.8850000   0.7230000 -16.9260000
  18.8290000   0.4450000 -16.9400000  20.3480000   0.2370000 -17.7870000
  20.5360000   0.2110000 -15.6250000  20.1670000   0.7910000 -14.7760000
  20.2270000  -0.8240000 -15.4660000  22.0750000   0.2630000 -15.6780000
  22.4060000  -0.2820000 -16.5650000  22.4070000   1.2970000 -15.7930000
  22.7570000  -0.3680000 -14.4480000  22.3830000  -1.3870000 -14.3270000
  23.8290000  -0.4480000 -14.6410000  22.5480000   0.3880000 -13.1240000
  21.4810000   0.5080000 -12.9250000  22.9530000  -0.2230000 -12.3150000
  23.2450000   1.7640000 -13.1090000  24.2750000   1.6480000 -13.4500000
  22.7430000   2.4380000 -13.8060000  23.2660000   2.4070000 -11.7130000
  23.8150000   1.7650000 -11.0210000  23.8230000   3.3440000 -11.7780000
  21.8680000   2.7030000 -11.2140000  21.3420000   3.4700000 -11.7770000
  21.2740000   2.1770000 -10.1480000  20.2760000   2.5220000  -9.8880000
  21.8000000   1.0620000  -9.2660000  21.0400000   0.2820000  -9.1890000
  22.6800000   0.5860000  -9.7040000  22.1450000   1.5730000  -7.8530000
  22.4710000   0.7290000  -7.2420000  22.9950000   2.2540000  -7.9280000
  20.9900000   2.3010000  -7.1330000  21.3700000   2.6760000  -6.1810000
  20.6820000   3.1710000  -7.7180000  19.7580000   1.4130000  -6.8740000
  19.4140000   0.9710000  -7.8110000  20.0510000   0.5900000  -6.2190000
  18.5740000   2.1710000  -6.2420000  18.1610000   2.8610000  -6.9800000
  17.7890000   1.4510000  -6.0020000  18.9460000   2.9650000  -4.9760000
  19.5500000   2.3340000  -4.3200000  19.5560000   3.8260000  -5.2560000
  17.7100000   3.4570000  -4.2020000  17.0720000   4.0430000  -4.8670000
  17.1300000   2.5950000  -3.8670000  18.0940000   4.3120000  -2.9830000
  17.1990000   4.6200000  -2.4380000  18.6300000   5.2090000  -3.2990000
  18.7320000   3.7460000  -2.3010000  37.5750000  34.5180000  -1.9180000
  37.0680000  33.5680000  -1.7370000  37.0270000  35.3070000  -1.3990000
  38.5810000  34.4580000  -1.4990000  37.6380000  34.8090000  -3.4270000
  36.6250000  34.8040000  -3.8340000  38.1930000  34.0060000  -3.9170000
  38.3040000  36.1640000  -3.7340000  39.3130000  36.1740000  -3.3170000
  37.7390000  36.9550000  -3.2380000  38.3770000  36.4660000  -5.2450000
  37.3780000  36.3860000  -5.6780000  39.0130000  35.7230000  -5.7310000
  38.9330000  37.8730000  -5.5220000  39.9330000  37.9570000  -5.0910000
  38.3000000  38.5970000  -5.0040000  38.9950000  38.2570000  -7.0170000
  39.2870000  39.3070000  -7.0850000  37.9990000  38.1780000  -7.4580000
  39.9870000  37.4130000  -7.8430000  39.5470000  36.4330000  -8.0390000
  40.8970000  37.2520000  -7.2620000  40.3680000  38.0980000  -9.1730000
  40.8820000  39.0340000  -8.9440000  39.4670000  38.3570000  -9.7330000
  41.2940000  37.2390000 -10.0570000  42.0250000  36.7290000  -9.4250000
  41.8490000  37.8900000 -10.7350000  40.5220000  36.2080000 -10.8980000
  39.9380000  36.7290000 -11.6590000  39.8170000  35.6790000 -10.2530000
  41.4400000  35.1740000 -11.5720000  42.0390000  34.6780000 -10.8050000
  42.1280000  35.6820000 -12.2510000  40.6340000  34.1140000 -12.3470000
  40.0900000  34.6010000 -13.1600000  39.8980000  33.6610000 -11.6800000
  41.5420000  33.0100000 -12.9170000  42.1100000  32.5640000 -12.0990000
  42.2660000  33.4550000 -13.6030000  40.7770000  31.8870000 -13.6450000
  40.0940000  31.3950000 -12.9500000  41.5060000  31.1290000 -13.9370000
  40.0300000  32.3480000 -14.9210000  40.2040000  31.6020000 -15.6990000
  40.4410000  33.2900000 -15.2910000  38.5300000  32.4850000 -14.7660000
  37.9380000  32.4860000 -13.7000000  37.9290000  32.5300000 -15.9750000
  36.4680000  32.5260000 -16.0370000  36.0570000  31.9430000 -15.2080000
  36.1770000  32.0210000 -16.9610000  35.8280000  33.9440000 -16.0370000
  34.7830000  33.7970000 -15.7510000  35.8450000  34.6230000 -17.4340000
  35.3000000  35.5690000 -17.3820000  35.3280000  33.9790000 -18.1500000
  37.1910000  34.8590000 -17.9270000  37.7590000  36.3570000 -18.1400000
  39.2480000  36.0720000 -18.6590000  40.2080000  35.4420000 -17.7930000
  39.6980000  34.7870000 -17.0820000  40.7410000  36.2140000 -17.2330000
  41.1940000  34.6210000 -18.6580000  41.9620000  34.2010000 -18.0060000
  41.6840000  35.2880000 -19.3690000  40.6540000  33.4620000 -19.4680000
  39.8680000  32.5160000 -18.6180000  40.5110000  32.1520000 -17.8160000
  39.5350000  31.6860000 -19.2430000  39.0040000  33.0430000 -18.2100000
  39.7940000  33.9230000 -20.5980000  40.3620000  34.6330000 -21.2000000
  38.9110000  34.4090000 -20.1800000  39.5020000  33.0590000 -21.1960000
  41.8050000  32.7160000 -20.0550000  42.3740000  33.3980000 -20.6890000
  41.4190000  31.8860000 -20.6470000  42.4340000  32.3400000 -19.2460000
  37.0050000  36.9850000 -19.2610000  37.8350000  37.0720000 -16.8380000
  36.4790000  34.7900000 -15.0500000  35.7690000  35.7670000 -14.4570000
  34.5820000  35.9700000 -14.6640000  36.5710000  36.5590000 -13.4520000
  37.4370000  36.9950000 -13.9560000  35.9580000  37.3810000 -13.0770000
  37.0570000  35.6950000 -12.2710000  37.7890000  34.9720000 -12.6360000
  37.5730000  36.3450000 -11.5610000  35.9250000  34.9420000 -11.5430000
  35.2020000  35.6600000 -11.1500000  35.3980000  34.3050000 -12.2570000
  36.4340000  34.0510000 -10.3970000  35.5990000  33.4440000 -10.0390000
  37.1880000  33.3660000 -10.7900000  37.0100000  34.8480000  -9.2090000
  37.8800000  35.4270000  -9.5270000  36.2580000  35.5630000  -8.8700000
  37.3960000  33.9520000  -8.0180000  37.6570000  34.5840000  -7.1670000
  36.5090000  33.3880000  -7.7210000  38.5490000  32.9590000  -8.2730000
  38.5330000  32.2210000  -7.4680000  38.3810000  32.4060000  -9.2000000
  39.9150000  33.6110000  -8.3220000  40.2330000  33.9560000  -9.3030000
  40.7580000  33.6820000  -7.2960000  41.7430000  34.1210000  -7.4370000
  40.4220000  33.2730000  -5.8780000  40.9500000  33.9240000  -5.1780000
  39.3540000  33.4150000  -5.7000000  40.7780000  31.8010000  -5.6000000
  40.3490000  31.1770000  -6.3880000  41.8620000  31.6680000  -5.6360000
  40.2330000  31.3110000  -4.2450000  39.1600000  31.5070000  -4.2030000
  40.3600000  30.2270000  -4.1890000  40.9200000  31.9550000  -3.0250000
  41.9770000  31.6800000  -3.0230000  40.8630000  33.0440000  -3.0950000
  40.2680000  31.5100000  -1.7040000  39.2360000  31.8660000  -1.6750000
  40.2400000  30.4190000  -1.6640000  41.0280000  32.0380000  -0.4750000
  42.0290000  31.6010000  -0.4620000  41.1390000  33.1210000  -0.5550000
  40.3110000  31.7050000   0.8460000  39.3530000  32.2290000   0.8740000
  40.0950000  30.6360000   0.8850000  41.1470000  32.1010000   2.0760000
  40.6040000  31.8690000   2.9950000  41.3670000  33.1700000   2.0650000
  42.0930000  31.5550000   2.0870000 -54.3990000   2.7190000   0.3650000
 -55.1930000   3.4600000   0.4820000 -53.9640000   2.5170000   1.3460000
 -54.8400000   1.7930000  -0.0120000 -53.3210000   3.2340000  -0.6010000
 -52.5250000   2.4900000  -0.6770000 -52.8820000   4.1490000  -0.1970000
 -53.8920000   3.5180000  -2.0010000 -54.6660000   4.2840000  -1.9260000
 -54.3610000   2.6080000  -2.3800000 -52.8020000   3.9860000  -2.9840000
 -52.0570000   3.1950000  -3.0990000 -52.2880000   4.8520000  -2.5600000
 -53.3500000   4.3690000  -4.3730000 -52.5180000   4.7040000  -4.9960000
 -54.0350000   5.2110000  -4.2600000 -54.0740000   3.2070000  -5.0800000
 -54.9710000   2.9420000  -4.5160000 -53.4200000   2.3320000  -5.0790000
 -54.4840000   3.5130000  -6.5330000 -55.0130000   2.6400000  -6.9220000
 -53.5880000   3.6420000  -7.1440000 -55.3700000   4.7680000  -6.6740000
 -54.7630000   5.6530000  -6.4720000 -56.1640000   4.7430000  -5.9240000
 -56.0040000   4.9170000  -8.0710000 -55.2340000   4.8210000  -8.8380000
 -56.4240000   5.9210000  -8.1560000 -57.1260000   3.8900000  -8.3190000
 -57.8690000   3.9780000  -7.5230000 -56.7170000   2.8790000  -8.2750000
 -57.8200000   4.0780000  -9.6790000 -57.0910000   3.9120000 -10.4750000
 -58.1760000   5.1070000  -9.7680000 -59.0100000   3.1110000  -9.8390000
 -59.7200000   3.2900000  -9.0290000 -58.6590000   2.0830000  -9.7360000
 -59.7530000   3.2570000 -11.1810000 -60.0890000   4.2900000 -11.3010000
 -60.6460000   2.6290000 -11.1520000 -58.8980000   2.8480000 -12.3930000
 -58.5240000   1.8340000 -12.2360000 -58.0350000   3.5130000 -12.4700000
 -59.6930000   2.9080000 -13.7130000 -59.9980000   3.9390000 -13.9040000
 -60.6040000   2.3110000 -13.6290000 -58.9000000   2.3970000 -14.8950000
 -58.1870000   1.4080000 -14.8590000 -59.1030000   3.1480000 -16.0010000
 -58.4110000   2.8130000 -17.2430000 -59.0920000   3.0330000 -18.0690000
 -58.1640000   1.7490000 -17.2870000 -57.1370000   3.6770000 -17.4280000
 -57.4420000   4.7260000 -17.3920000 -56.4880000   3.3740000 -18.7990000
 -57.1730000   3.6460000 -19.6060000 -56.2900000   2.3010000 -18.8660000
 -55.2490000   4.1230000 -18.9630000 -53.9020000   3.4540000 -19.5500000
 -53.2070000   2.7890000 -18.2550000 -53.5470000   1.4660000 -17.7880000
 -54.6200000   1.2920000 -17.9030000 -53.3130000   1.4080000 -16.7220000
 -52.7380000   0.3910000 -18.5580000 -53.0340000   0.4010000 -19.6080000
 -52.9950000  -0.5870000 -18.1480000 -51.2270000   0.4720000 -18.5460000
 -50.7390000   1.5180000 -19.4920000 -51.1260000   1.2930000 -20.4870000
 -49.6480000   1.5120000 -19.4950000 -51.1120000   2.4860000 -19.1560000
 -50.7030000   0.7780000 -17.1800000 -51.1020000   0.0430000 -16.4790000
 -51.0320000   1.7820000 -16.9070000 -49.6130000   0.7370000 -17.2090000
 -50.6590000  -0.8390000 -18.9860000 -51.0020000  -1.6260000 -18.3130000
 -49.5700000  -0.7770000 -18.9600000 -51.0000000  -1.0410000 -20.0030000
 -54.2720000   2.3840000 -20.5170000 -53.0150000   4.5530000 -20.0180000
 -56.1850000   3.3690000 -16.3700000 -55.5060000   4.3750000 -15.7800000
 -55.6400000   5.5590000 -16.0450000 -54.5770000   3.8710000 -14.7010000
 -54.1010000   2.9480000 -15.0400000 -53.7910000   4.6100000 -14.5330000
 -55.3600000   3.6080000 -13.4000000 -55.8510000   4.5280000 -13.0760000
 -56.1450000   2.8800000 -13.6150000 -54.5040000   3.0550000 -12.2460000
 -55.1720000   2.7380000 -11.4420000 -53.9720000   2.1650000 -12.5880000
 -53.4950000   4.0700000 -11.6750000 -52.8030000   4.3840000 -12.4590000
 -54.0290000   4.9560000 -11.3250000 -52.6940000   3.4620000 -10.5100000
 -53.3870000   3.1550000  -9.7230000 -52.1850000   2.5650000 -10.8690000
 -51.6580000   4.4390000  -9.9190000 -50.9860000   4.7770000 -10.7100000
 -52.1840000   5.3180000  -9.5410000 -50.8220000   3.8420000  -8.7680000
 -50.1620000   4.6200000  -8.3790000 -51.4800000   3.5620000  -7.9430000
 -49.9740000   2.6630000  -9.2100000 -49.0150000   2.9320000  -9.6470000
 -50.2760000   1.3770000  -9.0530000 -49.5650000   0.6230000  -9.3820000
 -51.5790000   0.8290000  -8.5060000 -52.3040000   1.6260000  -8.3300000
 -52.0210000   0.1540000  -9.2420000 -51.3600000   0.0520000  -7.1970000
 -50.7250000  -0.8150000  -7.3900000 -50.8410000   0.6930000  -6.4810000
 -52.6950000  -0.4110000  -6.5890000 -53.3310000   0.4640000  -6.4370000
 -53.2060000  -1.0690000  -7.2950000 -52.5030000  -1.1520000  -5.2520000
 -51.9140000  -2.0540000  -5.4320000 -51.9320000  -0.5260000  -4.5630000
 -53.8350000  -1.5500000  -4.5890000 -54.4380000  -2.1050000  -5.3100000
 -53.6200000  -2.2240000  -3.7570000 -54.6420000  -0.3490000  -4.0560000
 -54.0200000   0.2220000  -3.3630000 -54.9080000   0.3140000  -4.8830000
 -55.9310000  -0.7840000  -3.3380000 -56.5710000  -1.3200000  -4.0420000
 -55.6830000  -1.4750000  -2.5290000 -56.7050000   0.4120000  -2.7570000
 -57.6370000   0.0740000  -2.3000000 -56.9430000   1.1320000  -3.5420000
 -56.1090000   0.9170000  -1.9940000 -51.6780000  -4.0470000  -1.8000000
 -50.8480000  -3.4920000  -1.3570000 -52.1660000  -4.6250000  -1.0120000
 -52.3970000  -3.3310000  -2.2020000 -51.1630000  -4.9780000  -2.9090000
 -50.4300000  -5.6660000  -2.4810000 -50.6530000  -4.3790000  -3.6660000
 -52.3020000  -5.7860000  -3.5590000 -53.0100000  -5.1000000  -4.0290000
 -52.8440000  -6.3220000  -2.7760000 -51.8130000  -6.8100000  -4.5990000
 -52.6560000  -7.4330000  -4.9050000 -51.0930000  -7.4770000  -4.1200000
 -51.1530000  -6.1940000  -5.8490000 -50.7860000  -7.0070000  -6.4780000
 -50.2790000  -5.6130000  -5.5470000 -52.0720000  -5.2960000  -6.7020000
 -51.4910000  -4.9480000  -7.5580000 -52.3640000  -4.4110000  -6.1330000
 -53.3350000  -6.0320000  -7.1940000 -53.9760000  -6.2590000  -6.3400000
 -53.0400000  -6.9850000  -7.6380000 -54.1630000  -5.2480000  -8.2290000
 -54.5160000  -4.3120000  -7.7900000 -55.0450000  -5.8420000  -8.4780000
 -53.3770000  -4.9490000  -9.5210000 -52.8290000  -5.8460000  -9.8180000
 -52.6450000  -4.1610000  -9.3310000 -54.2920000  -4.5290000 -10.6840000
 -54.8920000  -3.6670000 -10.3840000 -54.9800000  -5.3470000 -10.9060000
 -53.4940000  -4.1770000 -11.9540000 -52.8060000  -4.9920000 -12.1870000
 -52.8970000  -3.2830000 -11.7650000 -54.4270000  -3.9340000 -13.1550000
 -55.2090000  -3.2310000 -12.8600000 -54.9220000  -4.8710000 -13.4190000
 -53.7160000  -3.3680000 -14.3990000 -53.3050000  -2.3860000 -14.1540000
 -54.4620000  -3.2160000 -15.1810000 -52.5890000  -4.2620000 -14.9500000
 -52.9770000  -5.2620000 -15.1510000 -51.8000000  -4.3550000 -14.2010000
 -52.0050000  -3.6610000 -16.2480000 -51.7110000  -2.6240000 -16.0720000
 -52.7770000  -3.6460000 -17.0210000 -50.8090000  -4.4100000 -16.7870000
 -50.2430000  -5.3210000 -16.2130000 -50.4390000  -3.9160000 -17.9880000
 -49.4010000  -4.6020000 -18.7550000 -48.6460000  -5.0370000 -18.0950000
 -48.9070000  -3.8610000 -19.3900000 -50.0200000  -5.6870000 -19.6760000
 -49.2250000  -6.2080000 -20.2170000 -50.9650000  -5.0510000 -20.7220000
 -50.3960000  -4.3760000 -21.3660000 -51.7320000  -4.4670000 -20.2080000
 -51.5800000  -6.0820000 -21.5500000 -53.1820000  -6.2020000 -21.7470000
 -53.7060000  -6.9140000 -20.4010000 -54.0620000  -6.1440000 -19.2370000
 -54.8970000  -5.4790000 -19.4740000 -53.2060000  -5.5350000 -18.9350000
 -54.4330000  -7.1040000 -18.0800000 -54.6060000  -6.5120000 -17.1800000
 -53.5930000  -7.7750000 -17.8940000 -55.6470000  -7.9920000 -18.2330000
 -56.8540000  -7.2040000 -18.6260000 -57.0120000  -6.4130000 -17.8920000
 -57.7140000  -7.8750000 -18.6520000 -56.6810000  -6.7790000 -19.6160000
 -55.4180000  -9.0700000 -19.2410000 -54.5490000  -9.6550000 -18.9370000
 -55.2330000  -8.6020000 -20.2090000 -56.3060000  -9.7020000 -19.2890000
 -55.9260000  -8.6480000 -16.9200000 -55.0550000  -9.2370000 -16.6300000
 -56.7960000  -9.2960000 -17.0340000 -56.1280000  -7.8760000 -16.1760000
 -53.7620000  -4.8330000 -21.8330000 -53.4280000  -7.1410000 -22.8770000
 -50.7800000  -6.6310000 -18.8730000 -50.1140000  -7.6200000 -18.2490000
 -48.9310000  -7.8740000 -18.4200000 -51.0200000  -8.3700000 -17.3030000
 -51.7640000  -7.6690000 -16.9210000 -51.5460000  -9.1480000 -17.8610000
 -50.2490000  -8.9820000 -16.1190000 -49.4940000  -9.6720000 -16.5020000
 -49.7200000  -8.1950000 -15.5770000 -51.1640000  -9.7520000 -15.1540000
 -51.6710000 -10.5440000 -15.7100000 -50.5290000 -10.2460000 -14.4150000
 -52.2290000  -8.8980000 -14.4300000 -52.8850000  -8.4280000 -15.1650000
 -52.8590000  -9.5650000 -13.8380000 -51.6600000  -7.8110000 -13.4950000
 -51.0850000  -7.0870000 -14.0770000 -52.4970000  -7.2700000 -13.0470000
 -50.7810000  -8.3940000 -12.3700000 -51.3420000  -9.1780000 -11.8560000
 -49.8930000  -8.8600000 -12.8010000 -50.3340000  -7.3560000 -11.3260000
 -51.2180000  -6.9070000 -10.8670000 -49.7990000  -7.8720000 -10.5260000
 -49.4700000  -6.2650000 -11.9240000 -50.0150000  -5.4010000 -12.2950000
 -48.1400000  -6.2580000 -11.9570000 -47.6250000  -5.3970000 -12.3770000
 -47.2360000  -7.4000000 -11.5340000 -47.7950000  -8.3330000 -11.4440000
 -46.4870000  -7.5600000 -12.3130000 -46.5020000  -7.1160000 -10.2080000
 -45.7900000  -7.9250000 -10.0300000 -45.9270000  -6.1920000 -10.2980000
 -47.4520000  -7.0150000  -9.0000000 -48.0990000  -6.1430000  -9.1130000
 -48.0930000  -7.8990000  -8.9790000 -46.7000000  -6.9260000  -7.6600000
 -46.0600000  -7.8050000  -7.5540000 -46.0570000  -6.0440000  -7.6510000
 -47.6810000  -6.8630000  -6.4770000 -48.2080000  -5.9070000  -6.4960000
 -48.4330000  -7.6460000  -6.5970000 -46.9880000  -7.0480000  -5.1150000
 -46.4240000  -7.9830000  -5.1260000 -46.2760000  -6.2380000  -4.9480000
 -48.0110000  -7.0890000  -3.9650000 -48.4770000  -6.1080000  -3.8620000
 -48.7990000  -7.8040000  -4.2100000 -47.3800000  -7.4990000  -2.6260000
 -48.1390000  -7.5170000  -1.8410000 -46.5990000  -6.7930000  -2.3380000
 -46.9390000  -8.4950000  -2.7030000  -8.4570000 -25.4910000   1.8700000
  -8.1350000 -24.7240000   2.5780000  -7.6360000 -26.1950000   1.7240000
  -9.3040000 -26.0310000   2.2980000  -8.8500000 -24.8400000   0.5360000
  -8.0180000 -24.2360000   0.1690000  -9.6930000 -24.1670000   0.7040000
  -9.2260000 -25.8900000  -0.5260000  -9.9840000 -26.5630000  -0.1200000
  -8.3490000 -26.4960000  -0.7630000  -9.7620000 -25.2360000  -1.8090000
  -8.9950000 -24.5830000  -2.2330000 -10.6220000 -24.6140000  -1.5510000
 -10.1750000 -26.2870000  -2.8540000 -10.9510000 -26.9310000  -2.4360000
  -9.3150000 -26.9220000  -3.0750000 -10.6780000 -25.6750000  -4.1730000
 -10.8880000 -26.4900000  -4.8680000  -9.8750000 -25.0790000  -4.6120000
 -11.9320000 -24.7880000  -4.0140000 -12.7380000 -25.3490000  -3.5360000
 -11.6990000 -23.9480000  -3.3570000 -12.4160000 -24.2190000  -5.3600000
 -11.5600000 -23.7800000  -5.8770000 -13.1190000 -23.4060000  -5.1650000
 -13.1000000 -25.2640000  -6.2670000 -14.1170000 -25.4420000  -5.9100000
 -12.5690000 -26.2160000  -6.2080000 -13.1260000 -24.8430000  -7.7460000
 -13.6260000 -25.6210000  -8.3270000 -12.0930000 -24.8090000  -8.0990000
 -13.8110000 -23.4880000  -8.0170000 -13.4830000 -22.7330000  -7.3000000
 -14.8890000 -23.6040000  -7.8860000 -13.5180000 -22.9690000  -9.4380000
 -14.2290000 -22.1790000  -9.6890000 -13.6660000 -23.7790000 -10.1540000
 -12.0860000 -22.4110000  -9.5690000 -11.3690000 -23.1570000  -9.2190000
 -11.9770000 -21.5290000  -8.9350000 -11.7420000 -22.0490000 -11.0190000
 -12.3990000 -21.2460000 -11.3570000 -11.9420000 -22.9190000 -11.6490000
 -10.2800000 -21.6080000 -11.2150000  -9.6040000 -22.3490000 -10.7830000
 -10.0940000 -20.6470000 -10.7310000  -9.9920000 -21.5090000 -12.6870000
  -9.9150000 -20.4660000 -13.3110000  -9.8570000 -22.7330000 -13.2250000
  -9.9360000 -22.8630000 -14.6680000  -9.0730000 -22.3630000 -15.1140000
 -10.8620000 -22.4030000 -15.0230000  -9.9200000 -24.3590000 -15.0460000
  -8.9330000 -24.7520000 -14.7870000 -10.1880000 -24.5710000 -16.5550000
 -10.2440000 -25.6430000 -16.7600000  -9.3560000 -24.1510000 -17.1260000
 -11.4220000 -23.9260000 -16.9780000 -11.8400000 -23.8380000 -18.5220000
 -12.3300000 -25.3100000 -18.8760000 -11.4080000 -26.3590000 -19.2160000
 -11.1370000 -26.9020000 -18.3070000 -10.5010000 -25.9470000 -19.6660000
 -12.1000000 -27.3150000 -20.2100000 -12.9990000 -27.7290000 -19.7520000
 -11.4210000 -28.1440000 -20.4170000 -12.5190000 -26.7700000 -21.5530000
 -11.4020000 -26.0230000 -22.2100000 -11.1590000 -25.1600000 -21.5890000
 -11.7330000 -25.6940000 -23.1960000 -10.5390000 -26.6850000 -22.2970000
 -12.9190000 -27.9180000 -22.4160000 -13.7270000 -28.4480000 -21.9100000
 -12.0590000 -28.5740000 -22.5560000 -13.2660000 -27.5310000 -23.3750000
 -13.6930000 -25.8600000 -21.4320000 -14.5030000 -26.4200000 -20.9610000
 -13.9870000 -25.5300000 -22.4300000 -13.4050000 -25.0090000 -20.8150000
 -13.0380000 -22.9860000 -18.6550000 -10.6450000 -23.5060000 -19.3260000
 -10.9410000 -25.0320000 -14.2610000 -10.6850000 -26.2660000 -13.7970000
  -9.7860000 -26.9850000 -14.1970000 -11.6620000 -26.6690000 -12.7210000
 -12.6340000 -26.2300000 -12.9580000 -11.7760000 -27.7550000 -12.7350000
 -11.2250000 -26.2030000 -11.3150000 -10.9750000 -25.1400000 -11.3420000
 -12.0780000 -26.3170000 -10.6440000 -10.0410000 -27.0100000 -10.7380000
 -10.2790000 -28.0730000 -10.8170000  -9.1420000 -26.8340000 -11.3320000
  -9.7510000 -26.6970000  -9.2550000 -10.6820000 -26.7660000  -8.6880000
  -9.0830000 -27.4660000  -8.8610000  -9.1030000 -25.3190000  -9.0200000
  -8.1020000 -25.3160000  -9.4550000  -9.6850000 -24.5510000  -9.5340000
  -9.0160000 -24.9820000  -7.5150000 -10.0280000 -24.9060000  -7.1100000
  -8.5380000 -25.8150000  -6.9940000  -8.2430000 -23.6880000  -7.1820000
  -8.1680000 -23.5950000  -6.0960000  -7.2280000 -23.7810000  -7.5730000
  -8.9010000 -22.4640000  -7.7880000  -9.3010000 -22.6130000  -8.7880000
  -9.0770000 -21.2840000  -7.2020000  -9.5990000 -20.5020000  -7.7480000
  -8.5630000 -20.8610000  -5.8400000  -7.8130000 -21.5580000  -5.4610000
  -8.0740000 -19.8890000  -5.9360000  -9.7160000 -20.7430000  -4.8270000
 -10.5210000 -20.1490000  -5.2640000 -10.1160000 -21.7410000  -4.6380000
  -9.2710000 -20.0850000  -3.5040000  -8.4000000 -20.6080000  -3.1030000
  -8.9610000 -19.0600000  -3.7160000 -10.3850000 -20.0540000  -2.4360000
 -10.1070000 -19.3430000  -1.6550000 -11.3100000 -19.6920000  -2.8890000
 -10.6200000 -21.4370000  -1.7950000 -10.7340000 -22.1820000  -2.5860000
  -9.7350000 -21.7240000  -1.2240000 -11.8680000 -21.5120000  -0.8910000
 -11.9530000 -22.5330000  -0.5150000 -12.7560000 -21.3240000  -1.4980000
 -11.8750000 -20.5420000   0.3070000 -12.8070000 -20.6820000   0.8600000
 -11.8700000 -19.5120000  -0.0540000 -10.6960000 -20.7540000   1.2690000
 -10.7980000 -20.1040000   2.1410000  -9.7490000 -20.5210000   0.7780000
 -10.6660000 -21.7900000   1.6140000 -41.3270000 -32.7250000   0.1000000
 -40.6400000 -33.3460000   0.6790000 -42.3310000 -32.8330000   0.5170000
 -41.0150000 -31.6840000   0.1960000 -41.3040000 -33.1460000  -1.3750000
 -41.6430000 -34.1810000  -1.4620000 -40.2710000 -33.1040000  -1.7270000
 -42.1930000 -32.2280000  -2.2360000 -41.8540000 -31.1970000  -2.1220000
 -43.2190000 -32.2710000  -1.8630000 -42.1970000 -32.5850000  -3.7340000
 -42.8270000 -31.8630000  -4.2580000 -42.6500000 -33.5680000  -3.8810000
 -40.7960000 -32.5720000  -4.3700000 -40.1730000 -33.3520000  -3.9250000
 -40.3280000 -31.6090000  -4.1550000 -40.8630000 -32.7980000  -5.8900000
 -41.5460000 -32.0670000  -6.3270000 -41.2830000 -33.7860000  -6.0880000
 -39.4950000 -32.6820000  -6.5880000 -39.6360000 -32.9100000  -7.6470000
 -38.8100000 -33.4320000  -6.1870000 -38.8740000 -31.2790000  -6.4300000
 -38.5390000 -31.1520000  -5.3980000 -39.6380000 -30.5200000  -6.6150000
 -37.6790000 -31.0080000  -7.3600000 -36.9240000 -31.7860000  -7.2250000
 -37.2300000 -30.0580000  -7.0620000 -38.0760000 -30.9170000  -8.8440000
 -38.8930000 -30.1990000  -8.9400000 -38.4390000 -31.8870000  -9.1920000
 -36.9030000 -30.4720000  -9.7330000 -36.0630000 -31.1530000  -9.5790000
 -36.5730000 -29.4790000  -9.4200000 -37.2460000 -30.4420000 -11.2340000
 -37.4770000 -31.4550000 -11.5710000 -36.3510000 -30.1130000 -11.7680000
 -38.4150000 -29.5030000 -11.5930000 -38.1780000 -28.4960000 -11.2430000
 -39.3150000 -29.8230000 -11.0650000 -38.7460000 -29.4470000 -13.0990000
 -39.5750000 -28.7480000 -13.2290000 -39.1090000 -30.4220000 -13.4320000
 -37.5810000 -28.9870000 -13.9990000 -36.8180000 -28.4700000 -13.4140000
 -37.9650000 -28.2760000 -14.7350000 -36.9430000 -30.1380000 -14.7400000
 -36.1400000 -30.9050000 -14.2300000 -37.3550000 -30.2110000 -16.0240000
 -37.0480000 -31.4260000 -16.7720000 -36.0780000 -31.8270000 -16.4680000
 -36.9750000 -31.1660000 -17.8310000 -38.1460000 -32.5190000 -16.6090000
 -37.6800000 -33.4670000 -16.8890000 -39.3650000 -32.2830000 -17.5470000
 -40.0120000 -33.1630000 -17.4980000 -39.0200000 -32.1850000 -18.5790000
 -40.1240000 -31.0910000 -17.1900000 -41.7380000 -31.1140000 -17.0380000
 -42.2490000 -31.1380000 -18.5640000 -42.2100000 -29.9460000 -19.3730000
 -41.1690000 -29.6320000 -19.4820000 -42.7670000 -29.1430000 -18.8840000
 -42.8090000 -30.2550000 -20.7650000 -42.2910000 -31.1140000 -21.1940000
 -42.6370000 -29.3960000 -21.4150000 -44.2870000 -30.5540000 -20.8640000
 -44.6470000 -31.8290000 -20.1750000 -44.0490000 -32.6350000 -20.6040000
 -45.7110000 -32.0200000 -20.3190000 -44.4200000 -31.7200000 -19.1130000
 -45.1050000 -29.4430000 -20.2920000 -44.8360000 -28.5140000 -20.7980000
 -44.8930000 -29.3690000 -19.2240000 -46.1600000 -29.6700000 -20.4500000
 -44.6470000 -30.7010000 -22.3050000 -44.4170000 -29.7680000 -22.8210000
 -45.7140000 -30.9200000 -22.3780000 -44.0650000 -31.5210000 -22.7270000
 -42.1600000 -32.3960000 -16.4060000 -42.1750000 -29.8360000 -16.4100000
 -38.5860000 -32.5890000 -15.2150000 -39.1220000 -33.7340000 -14.7560000
 -39.1810000 -34.7660000 -15.4060000 -39.6200000 -33.6230000 -13.3300000
 -39.3190000 -34.5240000 -12.7920000 -39.1500000 -32.7740000 -12.8290000
 -41.1540000 -33.4820000 -13.2880000 -41.4310000 -32.4370000 -13.4450000
 -41.5810000 -34.0540000 -14.1140000 -41.7900000 -34.0140000 -11.9890000
 -42.8760000 -33.9860000 -12.0950000 -41.5170000 -35.0660000 -11.8780000
 -41.4040000 -33.2740000 -10.6950000 -41.8100000 -33.8440000  -9.8560000
 -40.3190000 -33.2670000 -10.5760000 -41.9460000 -31.8320000 -10.6130000
 -41.3830000 -31.1870000 -11.2910000 -42.9920000 -31.8170000 -10.9270000
 -41.8450000 -31.2990000  -9.1700000 -42.4570000 -31.9290000  -8.5210000
 -40.8120000 -31.4080000  -8.8330000 -42.2570000 -29.8270000  -8.9720000
 -42.0920000 -29.5510000  -7.9280000 -41.5970000 -29.1910000  -9.5660000
 -43.6960000 -29.5470000  -9.3560000 -43.8230000 -29.0340000 -10.3060000
 -44.7690000 -29.8080000  -8.6140000 -45.7490000 -29.5190000  -8.9850000
 -44.7830000 -30.5570000  -7.2950000 -45.2310000 -31.5380000  -7.4640000
 -43.7730000 -30.7250000  -6.9150000 -45.6160000 -29.8260000  -6.2230000
 -45.0930000 -28.9210000  -5.9070000 -46.5760000 -29.5220000  -6.6480000
 -45.8690000 -30.7400000  -5.0090000 -46.4100000 -31.6210000  -5.3580000
 -44.9120000 -31.0820000  -4.6100000 -46.6790000 -30.0860000  -3.8740000
 -46.1100000 -29.2560000  -3.4510000 -47.6100000 -29.6800000  -4.2760000
 -47.0050000 -31.1120000  -2.7710000 -47.6040000 -31.9160000  -3.2030000
 -46.0760000 -31.5580000  -2.4100000 -47.7690000 -30.5110000  -1.5770000
 -47.1480000 -29.7510000  -1.0990000 -48.6760000 -30.0200000  -1.9350000
 -48.1460000 -31.5920000  -0.5440000 -48.8150000 -32.3190000  -1.0090000
 -47.2460000 -32.1280000  -0.2380000 -48.8270000 -31.0090000   0.7050000
 -49.0150000 -31.7990000   1.4340000 -49.7810000 -30.5470000   0.4400000
 -48.1910000 -30.2550000   1.1720000  13.1380000 -21.5830000  -0.3690000
  13.3590000 -21.6130000   0.7000000  12.2880000 -20.9180000  -0.5350000
  14.0080000 -21.1740000  -0.8870000  12.8280000 -22.9950000  -0.8850000
  11.9710000 -23.4000000  -0.3420000  13.6840000 -23.6420000  -0.6810000
  12.5290000 -23.0090000  -2.3940000  13.3010000 -22.4350000  -2.9100000
  11.5720000 -22.5150000  -2.5740000  12.4940000 -24.4410000  -2.9640000
  11.7900000 -25.0420000  -2.3850000  13.4790000 -24.8950000  -2.8380000
  12.0970000 -24.5140000  -4.4530000  11.0450000 -24.2410000  -4.5610000
  12.1800000 -25.5550000  -4.7720000  12.9640000 -23.6400000  -5.3850000
  13.1480000 -24.1860000  -6.3130000  13.9400000 -23.4730000  -4.9250000
  12.3190000 -22.2820000  -5.7380000  13.0790000 -21.6180000  -6.1530000
  11.9400000 -21.8020000  -4.8330000  11.1810000 -22.4230000  -6.7640000
  10.4060000 -23.0790000  -6.3610000  11.5740000 -22.8950000  -7.6670000
  10.5510000 -21.0650000  -7.1230000  11.2910000 -20.4270000  -7.6110000
  10.2570000 -20.5640000  -6.1980000   9.3050000 -21.2120000  -8.0190000
   8.7840000 -20.2530000  -8.0710000   8.6170000 -21.9160000  -7.5460000
   9.5990000 -21.6960000  -9.4530000   8.6560000 -22.0010000  -9.9120000
  10.2380000 -22.5810000  -9.4330000  10.2530000 -20.6190000 -10.3380000
  11.2620000 -20.4030000  -9.9790000   9.6750000 -19.6950000 -10.2660000
  10.3110000 -21.0670000 -11.8100000   9.3090000 -21.3530000 -12.1360000
  10.9430000 -21.9530000 -11.8960000  10.8470000 -19.9640000 -12.7400000
  11.8990000 -19.7840000 -12.5110000  10.3050000 -19.0330000 -12.5560000
  10.6960000 -20.3490000 -14.2250000   9.6400000 -20.3800000 -14.5010000
  11.1070000 -21.3470000 -14.3880000  11.4110000 -19.3690000 -15.1220000
  11.0350000 -18.2220000 -15.3090000  12.5190000 -19.9060000 -15.6640000
  13.3970000 -19.0580000 -16.4610000  13.7860000 -18.2620000 -15.8220000
  12.8280000 -18.5980000 -17.2730000  14.5920000 -19.8700000 -17.0530000
  15.4430000 -19.1910000 -17.1540000  14.3260000 -20.4570000 -18.4630000
  15.0850000 -21.2120000 -18.6840000  14.4250000 -19.6560000 -19.2000000
  13.0090000 -21.0700000 -18.5690000  11.9410000 -20.6360000 -19.7050000
  12.4170000 -21.4830000 -20.9910000  12.2230000 -22.9130000 -21.0580000
  11.9620000 -23.1870000 -22.0830000  11.3950000 -23.2110000 -20.4100000
  13.5190000 -23.6390000 -20.6190000  13.2920000 -24.6930000 -20.4550000
  13.8580000 -23.2170000 -19.6710000  14.7040000 -23.6170000 -21.5560000
  15.8290000 -24.3700000 -20.9270000  16.0910000 -23.8890000 -19.9840000
  16.6810000 -24.3590000 -21.6070000  15.5080000 -25.3980000 -20.7490000
  14.3690000 -24.2820000 -22.8520000  13.5900000 -23.7050000 -23.3520000
  14.0230000 -25.2960000 -22.6460000  15.2670000 -24.3100000 -23.4710000
  15.1760000 -22.2280000 -21.8360000  14.3600000 -21.6760000 -22.3030000
  16.0340000 -22.2770000 -22.5090000  15.4550000 -21.7560000 -20.8930000
  10.5910000 -21.1070000 -19.2930000  12.1240000 -19.1910000 -20.0150000
  15.0000000 -20.9720000 -16.1890000  15.5150000 -20.7000000 -14.9780000
  15.7440000 -19.5730000 -14.5840000  15.8360000 -21.9570000 -14.2010000
  15.0940000 -22.0980000 -13.4120000  15.7500000 -22.8100000 -14.8770000
  17.2630000 -21.9350000 -13.6170000  17.6130000 -22.9640000 -13.5090000
  17.9340000 -21.4520000 -14.3300000  17.3610000 -21.2330000 -12.2480000
  16.8710000 -20.2590000 -12.3010000  16.8360000 -21.8270000 -11.4970000
  18.8230000 -21.0250000 -11.8200000  19.3030000 -21.9990000 -11.6980000
  19.3370000 -20.4960000 -12.6250000  18.9950000 -20.2090000 -10.5250000
  18.5210000 -19.2330000 -10.6490000  18.5020000 -20.7180000  -9.6950000
  20.4850000 -20.0120000 -10.1900000  20.9350000 -20.9830000  -9.9760000
  20.9950000 -19.6040000 -11.0650000  20.7430000 -19.0620000  -9.0080000
  21.8260000 -18.9500000  -8.9200000  20.3350000 -18.0740000  -9.2280000
  20.2420000 -19.6030000  -7.6880000  20.7440000 -20.5050000  -7.3470000
  19.3510000 -19.0200000  -6.8930000  19.1240000 -19.4850000  -5.9370000
  18.4970000 -17.8180000  -7.2390000  18.9670000 -16.9050000  -6.8690000
  18.3860000 -17.7220000  -8.3210000  17.0980000 -17.9410000  -6.6090000
  16.4550000 -17.1610000  -7.0230000  16.6650000 -18.9030000  -6.8880000
  17.0990000 -17.8020000  -5.0750000  17.8390000 -18.4750000  -4.6380000
  17.3890000 -16.7830000  -4.8090000  15.7180000 -18.1180000  -4.4730000
  14.9690000 -17.4690000  -4.9320000  15.4490000 -19.1490000  -4.7100000
  15.6960000 -17.9210000  -2.9470000  16.4420000 -18.5730000  -2.4890000
  15.9770000 -16.8910000  -2.7170000  14.3090000 -18.2250000  -2.3460000
  13.5430000 -17.7200000  -2.9380000  14.1160000 -19.2970000  -2.4220000
  14.1520000 -17.7790000  -0.8780000  14.1550000 -16.6880000  -0.8360000
  13.1760000 -18.1120000  -0.5200000  15.2390000 -18.3150000   0.0690000
  15.0300000 -17.9990000   1.0940000  16.2220000 -17.9290000  -0.2090000
  15.2700000 -19.4060000   0.0440000  26.1050000 -48.1530000  -2.3790000
  26.9900000 -48.7600000  -2.1790000  25.2530000 -48.8200000  -2.5270000
  25.9110000 -47.5300000  -1.5040000  26.3270000 -47.2780000  -3.6250000
  26.5040000 -47.9170000  -4.4920000  27.2210000 -46.6680000  -3.4760000
  25.1240000 -46.3580000  -3.8970000  24.9690000 -45.7230000  -3.0220000
  24.2260000 -46.9650000  -4.0300000  25.3160000 -45.4620000  -5.1340000
  25.4140000 -46.0870000  -6.0230000  26.2460000 -44.9000000  -5.0210000
  24.1470000 -44.4720000  -5.3130000  24.0010000 -43.9320000  -4.3750000
  23.2240000 -45.0190000  -5.5160000  24.3990000 -43.4390000  -6.4280000
  25.3870000 -42.9980000  -6.2860000  23.6720000 -42.6300000  -6.3240000
  24.2930000 -44.0110000  -7.8530000  23.2680000 -44.3440000  -8.0330000
  24.9440000 -44.8830000  -7.9480000  24.7010000 -42.9670000  -8.9130000
  25.7340000 -42.6720000  -8.7200000  24.0870000 -42.0700000  -8.8150000
  24.6100000 -43.5070000 -10.3520000  24.9850000 -44.5330000 -10.3730000
  25.2770000 -42.9140000 -10.9810000  23.1870000 -43.4450000 -10.9510000
  22.9420000 -42.4030000 -11.1670000  22.4630000 -43.7930000 -10.2110000
  23.0060000 -44.2930000 -12.2300000  22.0640000 -44.0150000 -12.7090000
  22.9080000 -45.3400000 -11.9360000  24.1520000 -44.1950000 -13.2570000
  23.9340000 -44.8770000 -14.0810000  25.0730000 -44.5480000 -12.7890000
  24.3860000 -42.7830000 -13.8270000  24.4190000 -42.0620000 -13.0080000
  23.5410000 -42.5060000 -14.4610000  25.6990000 -42.6530000 -14.6290000
  26.5510000 -42.8260000 -13.9680000  25.7830000 -41.6180000 -14.9680000
  25.8020000 -43.5670000 -15.8700000  24.8150000 -43.9120000 -16.1860000
  26.2080000 -42.9790000 -16.6960000  26.7070000 -44.7620000 -15.6570000
  26.6560000 -45.5000000 -14.6880000  27.6020000 -44.9070000 -16.6550000
  28.3680000 -46.1440000 -16.7460000  28.6590000 -46.4910000 -15.7520000
  29.2860000 -45.9200000 -17.2960000  27.6160000 -47.2690000 -17.5220000
  28.2900000 -48.1250000 -17.6090000  27.2370000 -46.8550000 -18.9680000
  26.9430000 -47.7520000 -19.5200000  28.1070000 -46.4170000 -19.4630000
  26.1350000 -45.9030000 -19.0020000  25.5010000 -45.4030000 -20.3980000
  24.6910000 -46.6970000 -20.9010000  23.4670000 -47.0920000 -20.2540000
  22.7250000 -46.3000000 -20.3870000  23.6430000 -47.2290000 -19.1840000
  22.9470000 -48.3960000 -20.9010000  22.8320000 -48.2430000 -21.9750000
  21.9650000 -48.6240000 -20.4820000  23.7570000 -49.6590000 -20.7320000
  25.0680000 -49.5860000 -21.4430000  24.8760000 -49.3870000 -22.4980000
  25.5880000 -50.5370000 -21.3200000  25.6510000 -48.7710000 -21.0110000
  23.9890000 -49.9580000 -19.2870000  23.0160000 -50.0220000 -18.7980000
  24.5870000 -49.1550000 -18.8540000  24.5160000 -50.9100000 -19.2100000
  22.9950000 -50.7960000 -21.3230000  22.0460000 -50.8810000 -20.7910000
  23.5800000 -51.7100000 -21.2030000  22.8210000 -50.5890000 -22.3800000
  24.5300000 -44.3090000 -20.1180000  26.6050000 -45.1470000 -21.3670000
  26.4030000 -47.6950000 -16.8320000  26.5070000 -48.5420000 -15.7900000
  27.5690000 -48.9620000 -15.3600000  25.1560000 -48.9730000 -15.2590000
  24.4090000 -48.8150000 -16.0400000  25.1830000 -50.0450000 -15.0540000
  24.7190000 -48.2110000 -13.9890000  24.7100000 -47.1380000 -14.1920000
  23.6900000 -48.5000000 -13.7640000  25.5990000 -48.5040000 -12.7550000
  25.5630000 -49.5730000 -12.5350000  26.6380000 -48.2580000 -12.9860000
  25.1980000 -47.7150000 -11.4930000  25.9030000 -47.9590000 -10.6960000
  25.2970000 -46.6460000 -11.6930000  23.7680000 -48.0100000 -11.0000000
  23.0480000 -47.6900000 -11.7560000  23.6510000 -49.0880000 -10.8670000
  23.4530000 -47.2890000  -9.6730000  24.1390000 -47.6360000  -8.8980000
  23.6250000 -46.2180000  -9.8000000  22.0030000 -47.4940000  -9.1980000
  21.8270000 -46.8760000  -8.3140000  21.3230000 -47.1280000  -9.9690000
  21.7100000 -48.9550000  -8.9230000  21.5210000 -49.5520000  -9.8110000
  21.6730000 -49.5450000  -7.7320000  21.4490000 -50.6070000  -7.6820000
  21.8980000 -48.8830000  -6.3850000  22.0190000 -47.8020000  -6.4760000
  21.0150000 -49.0510000  -5.7650000  23.1230000 -49.4540000  -5.6420000
  24.0300000 -49.2050000  -6.1980000  23.1940000 -48.9600000  -4.6710000
  23.0540000 -50.9790000  -5.4240000  22.0420000 -51.2440000  -5.1090000
  23.2410000 -51.4890000  -6.3710000  24.0400000 -51.4980000  -4.3590000
  23.7700000 -51.0680000  -3.3920000  23.9200000 -52.5800000  -4.2740000
  25.5200000 -51.1850000  -4.6470000  25.8040000 -51.6100000  -5.6120000
  25.6610000 -50.1040000  -4.7060000  26.4310000 -51.7570000  -3.5440000
  26.0830000 -51.4020000  -2.5720000  26.3500000 -52.8460000  -3.5420000
  27.9060000 -51.3550000  -3.7210000  28.2610000 -51.6870000  -4.7000000
  27.9940000 -50.2670000  -3.6950000  28.7990000 -51.9640000  -2.6280000
  29.8370000 -51.6560000  -2.7750000  28.7540000 -53.0540000  -2.6610000
  28.4760000 -51.6310000  -1.6400000  29.5320000 -44.0600000  -1.9530000
  29.6030000 -44.3650000  -0.9070000  29.0320000 -44.8540000  -2.5130000
  28.9200000 -43.1570000  -2.0100000  30.9340000 -43.7980000  -2.5280000
  31.5340000 -44.7060000  -2.4370000  31.4260000 -43.0210000  -1.9400000
  30.8840000 -43.3630000  -4.0020000  30.2510000 -42.4780000  -4.0990000
  30.4280000 -44.1580000  -4.5960000  32.2850000 -43.0490000  -4.5560000
  32.9230000 -43.9280000  -4.4410000  32.7320000 -42.2400000  -3.9740000
  32.2390000 -42.6460000  -6.0400000  31.6030000 -41.7650000  -6.1520000
  31.7810000 -43.4580000  -6.6090000  33.6440000 -42.3470000  -6.5950000
  34.2650000 -43.2360000  -6.4650000  34.0990000 -41.5470000  -6.0070000
  33.6760000 -41.9450000  -8.0830000  34.7160000 -41.7690000  -8.3660000
  33.1400000 -41.0030000  -8.2200000  33.0840000 -43.0160000  -9.0170000
  32.0120000 -43.1090000  -8.8340000  33.5400000 -43.9820000  -8.7890000
  33.3150000 -42.6940000 -10.5050000  34.3880000 -42.6500000 -10.7000000
  32.8970000 -41.7130000 -10.7400000  32.6720000 -43.7560000 -11.4140000
  31.5900000 -43.7470000 -11.2620000  33.0360000 -44.7430000 -11.1210000
  32.9900000 -43.5300000 -12.9040000  34.0740000 -43.4820000 -13.0260000
  32.5900000 -42.5640000 -13.2220000  32.4460000 -44.6550000 -13.8090000
  32.8770000 -45.6040000 -13.4830000  32.8030000 -44.4930000 -14.8280000
  30.9080000 -44.7980000 -13.8220000  30.5640000 -45.0870000 -12.8270000
  30.6460000 -45.6200000 -14.4920000  30.1420000 -43.5350000 -14.2670000
  30.3170000 -42.7290000 -13.5520000  29.0730000 -43.7550000 -14.2450000
  30.5370000 -43.0650000 -15.6840000  30.3700000 -43.8650000 -16.4090000
  31.6020000 -42.8240000 -15.7050000  29.7860000 -41.8390000 -16.1420000
  28.7260000 -41.4540000 -15.6810000  30.4610000 -41.2010000 -17.1180000
  29.9200000 -39.9500000 -17.6320000  29.6110000 -39.3180000 -16.7950000
  29.0510000 -40.1530000 -18.2620000  31.0090000 -39.1980000 -18.4330000
  30.6020000 -38.2510000 -18.7970000  31.4500000 -40.0210000 -19.6670000
  30.5470000 -40.3370000 -20.1950000  31.9800000 -40.9260000 -19.3580000
  32.2610000 -39.2670000 -20.6190000  33.8380000 -38.9420000 -20.4070000
  34.4240000 -40.2520000 -19.6720000  35.3950000 -40.1200000 -18.6160000
  34.9590000 -39.5760000 -17.7740000  36.2460000 -39.5510000 -19.0000000
  35.8780000 -41.5240000 -18.1840000  36.7940000 -41.4170000 -17.6010000
  36.1150000 -42.0950000 -19.0830000  34.9580000 -42.3950000 -17.3580000
  34.7590000 -41.8230000 -15.9900000  35.7350000 -41.7160000 -15.5130000
  34.1380000 -42.5090000 -15.4120000  34.2630000 -40.8560000 -16.0790000
  33.6210000 -42.5710000 -17.9950000  33.7730000 -42.8450000 -19.0400000
  33.0900000 -41.6200000 -17.9290000  33.0710000 -43.3530000 -17.4690000
  35.5840000 -43.7430000 -17.2150000  35.6980000 -44.1790000 -18.2090000
  34.9360000 -44.3720000 -16.6030000  36.5590000 -43.6300000 -16.7390000
  34.4600000 -38.8890000 -21.7590000  33.9860000 -37.7570000 -19.5230000
  32.1490000 -38.9780000 -17.5540000  32.2310000 -37.7950000 -16.9140000
  31.3580000 -36.9430000 -16.9320000  33.5210000 -37.6440000 -16.1370000
  34.0570000 -38.5950000 -16.1150000  34.1430000 -36.9250000 -16.6750000
  33.3120000 -37.1480000 -14.6940000  34.2710000 -36.8140000 -14.2930000
  32.6520000 -36.2790000 -14.7010000  32.7440000 -38.2340000 -13.7620000
  31.8490000 -38.6640000 -14.2180000  33.4730000 -39.0380000 -13.6440000
  32.4010000 -37.6380000 -12.3830000  33.3080000 -37.2130000 -11.9480000
  31.7040000 -36.8080000 -12.5170000  31.7840000 -38.6310000 -11.3800000
  32.5640000 -39.2940000 -11.0000000  31.4130000 -38.0530000 -10.5310000
  30.6370000 -39.4880000 -11.9620000  30.0780000 -38.9000000 -12.6940000
  31.0680000 -40.3380000 -12.4950000  29.6280000 -39.9970000 -10.9140000
  28.9840000 -39.1700000 -10.6100000  28.9750000 -40.7310000 -11.3900000
  30.3050000 -40.6360000  -9.7170000  30.7260000 -41.6210000  -9.9030000
  30.3950000 -40.1120000  -8.4980000  30.8970000 -40.6780000  -7.7180000
  29.8860000 -38.7480000  -8.0680000  29.6230000 -38.1310000  -8.9300000
  28.9750000 -38.8790000  -7.4820000  30.9170000 -37.9660000  -7.2270000
  31.8170000 -37.8070000  -7.8250000  30.5030000 -36.9780000  -7.0150000
  31.3210000 -38.6160000  -5.8850000  31.9060000 -39.5180000  -6.0770000
  31.9720000 -37.9200000  -5.3530000  30.1160000 -38.9660000  -4.9900000
  29.4650000 -38.0930000  -4.9060000  29.5390000 -39.7660000  -5.4580000
  30.5260000 -39.4080000  -3.5750000  31.2420000 -40.2300000  -3.6400000
  31.0260000 -38.5740000  -3.0770000  29.3030000 -39.8590000  -2.7510000
  28.5610000 -39.0580000  -2.7240000  28.8350000 -40.7080000  -3.2530000
  29.6470000 -40.2740000  -1.3090000  28.7530000 -40.6910000  -0.8390000
  30.3960000 -41.0690000  -1.3390000  30.1710000 -39.1220000  -0.4340000
  30.3940000 -39.4890000   0.5690000  29.4230000 -38.3310000  -0.3530000
  31.0850000 -38.6950000  -0.8520000 -48.1160000 -22.4750000  -1.1470000
 -47.9640000 -22.8070000  -0.1180000 -49.1860000 -22.3350000  -1.3150000
 -47.6190000 -21.5120000  -1.2840000 -47.5440000 -23.5010000  -2.1340000
 -48.0340000 -24.4640000  -1.9780000 -46.4780000 -23.6360000  -1.9410000
 -47.7550000 -23.0450000  -3.5880000 -47.2950000 -22.0660000  -3.7300000
 -48.8260000 -22.9330000  -3.7690000 -47.1690000 -24.0380000  -4.6070000
 -47.5660000 -25.0340000  -4.4030000 -46.0840000 -24.0840000  -4.4940000
 -47.5250000 -23.6380000  -6.0490000 -47.0810000 -22.6680000  -6.2780000
 -48.6090000 -23.5300000  -6.1240000 -47.0550000 -24.6780000  -7.0830000
 -47.3300000 -25.6750000  -6.7320000 -45.9660000 -24.6520000  -7.1670000
 -47.6970000 -24.4620000  -8.4650000 -48.7830000 -24.4630000  -8.3490000
 -47.4450000 -25.3100000  -9.1060000 -47.2630000 -23.1630000  -9.1710000
 -46.2060000 -23.2340000  -9.4370000 -47.3760000 -22.3090000  -8.5010000
 -48.1040000 -22.9240000 -10.4380000 -49.1490000 -22.7800000 -10.1550000
 -48.0560000 -23.8140000 -11.0690000 -47.6270000 -21.7100000 -11.2530000
 -46.5800000 -21.8620000 -11.5250000 -47.6880000 -20.8050000 -10.6450000
 -48.4540000 -21.5300000 -12.5370000 -49.4840000 -21.2780000 -12.2750000
 -48.4720000 -22.4840000 -13.0680000 -47.8740000 -20.4420000 -13.4600000
 -46.8420000 -20.7000000 -13.7090000 -47.8450000 -19.4930000 -12.9200000
 -48.6730000 -20.2470000 -14.7650000 -48.2010000 -19.4460000 -15.3380000
 -49.6820000 -19.9100000 -14.5160000 -48.7660000 -21.5200000 -15.6360000
 -49.2820000 -22.2980000 -15.0690000 -47.7630000 -21.8930000 -15.8540000
 -49.5410000 -21.3190000 -16.9550000 -50.4670000 -20.7720000 -16.7710000
 -49.8180000 -22.2960000 -17.3580000 -48.7260000 -20.5870000 -17.9900000
 -48.4910000 -19.3940000 -17.9410000 -48.3170000 -21.3980000 -18.9890000
 -47.3150000 -20.9090000 -19.9300000 -47.4950000 -19.8570000 -20.1650000
 -47.4200000 -21.4730000 -20.8600000 -45.8600000 -21.1010000 -19.4060000
 -45.1700000 -20.6620000 -20.1300000 -45.4430000 -22.5870000 -19.2370000
 -44.3950000 -22.6090000 -18.9260000 -45.5260000 -23.1090000 -20.1930000
 -46.2340000 -23.2900000 -18.2350000 -45.9000000 -24.8170000 -17.8050000
 -46.9350000 -25.6880000 -18.6850000 -48.3220000 -25.8180000 -18.3030000
 -48.4120000 -25.8200000 -17.2130000 -48.6990000 -26.7760000 -18.6680000
 -49.1510000 -24.6560000 -18.8990000 -48.6620000 -23.7120000 -18.6560000
 -50.1390000 -24.6580000 -18.4370000 -49.3930000 -24.6410000 -20.3900000
 -50.1000000 -25.8790000 -20.8370000 -49.4480000 -26.7370000 -20.6650000
 -50.3210000 -25.7870000 -21.9010000 -51.0240000 -25.9810000 -20.2660000
 -50.2570000 -23.4690000 -20.7200000 -49.7530000 -22.5590000 -20.3910000
 -51.2100000 -23.5810000 -20.2000000 -50.4180000 -23.4460000 -21.7990000
 -48.1190000 -24.5100000 -21.1540000 -47.6010000 -23.6170000 -20.8010000
 -48.3490000 -24.4350000 -22.2180000 -47.5100000 -25.3940000 -20.9580000
 -44.5280000 -25.1700000 -18.2680000 -46.2250000 -24.9930000 -16.3610000
 -45.6850000 -20.4360000 -18.1270000 -45.4700000 -19.1070000 -18.0800000
 -45.3490000 -18.4140000 -19.0770000 -45.3850000 -18.5600000 -16.6680000
 -44.7290000 -17.6870000 -16.6610000 -46.3820000 -18.2250000 -16.3750000
 -44.8860000 -19.6000000 -15.6370000 -44.9920000 -19.1870000 -14.6310000
 -45.5340000 -20.4770000 -15.6800000 -43.4170000 -20.0280000 -15.8400000
 -43.1610000 -19.9790000 -16.9010000 -42.7640000 -19.3210000 -15.3240000
 -43.1210000 -21.4620000 -15.3550000 -43.6170000 -22.1620000 -16.0300000
 -42.0480000 -21.6480000 -15.4400000 -43.5740000 -21.7800000 -13.9170000
 -44.6600000 -21.6810000 -13.8480000 -43.3420000 -22.8260000 -13.7060000
 -42.9150000 -20.9020000 -12.8370000 -41.8320000 -21.0350000 -12.8660000
 -43.1280000 -19.8490000 -13.0350000 -43.4450000 -21.2710000 -11.4410000
 -44.5330000 -21.1700000 -11.4480000 -43.2100000 -22.3190000 -11.2480000
 -42.8220000 -20.4120000 -10.3620000 -41.7470000 -20.2760000 -10.4480000
 -43.4710000 -19.8170000  -9.3660000 -42.9030000 -19.2150000  -8.6610000
 -44.9580000 -19.9140000  -9.0750000 -45.4560000 -19.0040000  -9.4160000
 -45.4120000 -20.7510000  -9.6100000 -45.2530000 -20.0910000  -7.5750000
 -46.3340000 -20.1750000  -7.4460000 -44.8150000 -21.0330000  -7.2400000
 -44.7330000 -18.9340000  -6.6940000 -43.6410000 -18.9370000  -6.6920000
 -45.0480000 -17.9830000  -7.1290000 -45.2450000 -18.9970000  -5.2410000
 -44.7750000 -18.1970000  -4.6660000 -46.3180000 -18.7940000  -5.2440000
 -45.0040000 -20.3420000  -4.5250000 -45.4260000 -20.2690000  -3.5200000
 -45.5530000 -21.1330000  -5.0400000 -43.5160000 -20.7370000  -4.4290000
 -43.0880000 -20.7910000  -5.4320000 -42.9730000 -19.9610000  -3.8860000
 -43.2870000 -22.0940000  -3.7360000 -43.8190000 -22.8750000  -4.2840000
 -42.2230000 -22.3360000  -3.7830000 -43.7290000 -22.1160000  -2.2640000
 -43.4950000 -23.0840000  -1.8140000 -44.8050000 -21.9520000  -2.1770000
 -43.2090000 -21.3400000  -1.6980000  13.9930000  44.1920000  -0.1070000
  13.2660000  44.1690000   0.7080000  14.5680000  43.2640000  -0.0780000
  13.4520000  44.2370000  -1.0540000  14.9080000  45.4160000   0.0530000
  15.3990000  45.3750000   1.0270000  14.2900000  46.3160000   0.0420000
  15.9750000  45.5280000  -1.0510000  16.5110000  46.4710000  -0.9220000
  15.4810000  45.5680000  -2.0240000  16.9950000  44.3740000  -1.0270000
  16.5040000  43.4340000  -1.2880000  17.3730000  44.2630000  -0.0090000
  18.1910000  44.6160000  -1.9690000  18.9330000  43.8310000  -1.8120000
  18.6700000  45.5590000  -1.6950000  17.8290000  44.6670000  -3.4660000
  18.7250000  44.9540000  -4.0210000  17.0870000  45.4480000  -3.6430000
  17.3080000  43.3270000  -4.0200000  16.3680000  43.0560000  -3.5350000
  18.0360000  42.5440000  -3.7990000  17.0950000  43.4030000  -5.5410000
  18.0010000  43.8110000  -5.9940000  16.2820000  44.0970000  -5.7640000
  16.7970000  42.0340000  -6.1810000  15.8210000  41.6660000  -5.8540000
  17.5510000  41.3150000  -5.8530000  16.8390000  42.1420000  -7.7150000
  17.7540000  42.6700000  -7.9930000  16.0050000  42.7550000  -8.0640000
  16.8250000  40.7870000  -8.4460000  15.8050000  40.3990000  -8.4850000
  17.4380000  40.0630000  -7.9070000  17.3910000  40.9670000  -9.8660000
  18.4390000  41.2660000  -9.7860000  16.8530000  41.7830000 -10.3530000
  17.3150000  39.7040000 -10.7390000  16.2700000  39.4180000 -10.8730000
  17.8100000  38.8820000 -10.2170000  17.9880000  39.8870000 -12.1170000
  17.8390000  38.9780000 -12.7030000  19.0650000  39.9790000 -11.9620000
  17.5210000  41.1070000 -12.9440000  17.7700000  42.0350000 -12.4260000
  18.0710000  41.1190000 -13.8870000  16.0390000  41.1150000 -13.2460000
  15.1740000  41.2270000 -12.3980000  15.7790000  40.9970000 -14.5640000
  14.4060000  41.2130000 -15.0170000  13.6820000  40.8740000 -14.2730000
  14.2520000  40.6160000 -15.9200000  14.1540000  42.6980000 -15.3890000
  13.1110000  42.8150000 -15.6950000  15.0590000  43.1540000 -16.5570000
  16.1020000  43.0630000 -16.2430000  14.8540000  44.2000000 -16.7970000
  14.8650000  42.3330000 -17.7480000  13.6450000  42.5810000 -18.7810000
  14.1000000  43.9130000 -19.5620000  14.4710000  43.8950000 -20.9570000
  14.4090000  44.9150000 -21.3450000  13.7550000  43.2850000 -21.5150000
  15.9040000  43.3440000 -21.1500000  16.1000000  43.2640000 -22.2200000
  15.9630000  42.3430000 -20.7200000  17.0610000  44.1290000 -20.5790000
  17.0520000  44.1010000 -19.0910000  16.1610000  44.6280000 -18.7460000
  17.9550000  44.5970000 -18.7320000  17.0220000  43.0620000 -18.7620000
  18.3360000  43.5110000 -21.0430000  18.3820000  43.5770000 -22.1310000
  18.3640000  42.4700000 -20.7200000  19.1610000  44.0690000 -20.5980000
  17.0400000  45.5490000 -21.0370000  17.0250000  45.5670000 -22.1270000
  17.9430000  46.0350000 -20.6640000  16.1530000  46.0370000 -20.6300000
  13.6330000  41.4320000 -19.7220000  12.4070000  42.8910000 -18.0220000
  14.4220000  43.5830000 -14.2630000  13.4320000  43.7940000 -13.3710000
  12.3330000  43.2700000 -13.4350000  13.8110000  44.8040000 -12.3090000
  14.5690000  45.4770000 -12.7170000  12.9390000  45.4160000 -12.0730000
  14.3610000  44.1490000 -11.0230000  15.3000000  43.6440000 -11.2600000
  14.6050000  44.9380000 -10.3080000  13.4130000  43.1390000 -10.3390000
  13.2170000  42.3090000 -11.0210000  13.9320000  42.7180000  -9.4760000
  12.0640000  43.7450000  -9.8950000  12.2320000  44.5450000  -9.1710000
  11.5860000  44.2000000 -10.7650000  11.0760000  42.7090000  -9.3190000
  10.0660000  43.0490000  -9.5560000  11.2030000  41.7490000  -9.8240000
  11.1390000  42.5160000  -7.7880000  10.9670000  43.4820000  -7.3080000
  10.3110000  41.8700000  -7.4910000  12.4420000  41.9150000  -7.2260000
  13.2800000  42.5820000  -7.4380000  12.3580000  41.8760000  -6.1380000
  12.7280000  40.5300000  -7.7770000  13.2830000  40.5100000  -8.7120000
  12.4190000  39.3860000  -7.1730000  12.7070000  38.4420000  -7.6290000
  11.6150000  39.2660000  -5.8960000  10.8880000  40.0780000  -5.8350000
  11.0480000  38.3330000  -5.9040000  12.5280000  39.3030000  -4.6580000
  13.1670000  38.4180000  -4.6420000  13.1820000  40.1750000  -4.7270000
  11.7230000  39.3890000  -3.3480000  11.0110000  40.2130000  -3.4240000
  11.1500000  38.4710000  -3.2010000  12.6420000  39.6320000  -2.1380000
  13.2740000  38.7550000  -1.9810000  13.3010000  40.4740000  -2.3620000
  11.8630000  39.9460000  -0.8490000  11.1670000  40.7640000  -1.0490000
  11.2750000  39.0750000  -0.5520000  12.8170000  40.3480000   0.2930000
  13.5140000  39.5290000   0.4780000  13.4110000  41.2070000  -0.0260000
  12.1080000  40.6990000   1.6140000  11.5820000  39.8180000   1.9860000
  12.8680000  40.9520000   2.3560000  11.1240000  41.8770000   1.5040000
  10.7190000  42.1120000   2.4910000  10.2900000  41.6370000   0.8400000
  11.6260000  42.7670000   1.1190000  31.2090000  13.0620000  -3.8580000
  31.8330000  13.6320000  -4.5490000  31.6400000  13.1410000  -2.8580000
  30.2140000  13.5110000  -3.8460000  31.1300000  11.5920000  -4.3020000
  32.1440000  11.1920000  -4.3670000  30.6980000  11.5500000  -5.3040000
  30.3000000  10.7210000  -3.3370000  29.2580000  11.0480000  -3.3500000
  30.6720000  10.8720000  -2.3210000  30.3770000   9.2130000  -3.6590000
  29.9110000   8.6500000  -2.8490000  31.4280000   8.9180000  -3.6830000
  29.7210000   8.8060000  -4.9950000  30.0880000   7.8130000  -5.2610000
  30.0570000   9.4770000  -5.7880000  28.1760000   8.7950000  -4.9570000
  27.8030000   9.3960000  -5.7890000  27.8280000   9.2820000  -4.0430000
  27.5440000   7.3880000  -5.0390000  26.4660000   7.4700000  -4.8810000
  27.9330000   6.7710000  -4.2260000  27.7850000   6.6760000  -6.3840000
  28.8600000   6.5820000  -6.5560000  27.3820000   7.2890000  -7.1930000
  27.1210000   5.2840000  -6.4450000  26.0370000   5.4140000  -6.4430000
  27.3760000   4.7150000  -5.5490000  27.5300000   4.4720000  -7.6930000
  27.4180000   5.0940000  -8.5840000  26.8550000   3.6210000  -7.8020000
  28.9770000   3.9530000  -7.5790000  29.0500000   3.3220000  -6.6910000
  29.6470000   4.8010000  -7.4220000  29.4950000   3.1520000  -8.7870000
  28.8670000   2.2740000  -8.9460000  30.4970000   2.7900000  -8.5450000
  29.5700000   3.9640000 -10.0930000  30.0480000   4.9270000  -9.9020000
  28.5590000   4.1610000 -10.4540000  30.3760000   3.2060000 -11.1680000
  29.9700000   2.1990000 -11.2840000  31.4070000   3.0990000 -10.8250000
  30.3810000   3.9120000 -12.5380000  30.6780000   4.9560000 -12.4220000
  31.1120000   3.4360000 -13.1940000  29.0280000   3.8300000 -13.2010000
  28.5440000   2.7910000 -13.6170000  28.4080000   5.0230000 -13.2710000
  27.0640000   5.0560000 -13.8340000  26.3590000   4.6780000 -13.0890000
  27.0210000   4.3970000 -14.7050000  26.6440000   6.4820000 -14.3000000
  25.5530000   6.5140000 -14.3430000  27.1790000   6.8200000 -15.7180000
  27.0050000   7.8790000 -15.9270000  26.6350000   6.2340000 -16.4630000
  28.5990000   6.5390000 -15.8480000  29.3690000   6.7350000 -17.2530000
  29.1090000   5.3210000 -17.9900000  30.0570000   4.2380000 -17.8970000
  29.5430000   3.2970000 -18.1090000  30.4520000   4.1900000 -16.8790000
  31.2070000   4.4530000 -18.9110000  31.9510000   3.6690000 -18.7630000
  31.6840000   5.4130000 -18.7110000  30.8930000   4.4390000 -20.3860000
  32.1670000   4.5990000 -21.1420000  32.6210000   5.5500000 -20.8630000
  31.9480000   4.5770000 -22.2100000  32.8260000   3.7720000 -20.8710000
  30.2750000   3.1420000 -20.7900000  29.3120000   3.0420000 -20.2870000
  30.9520000   2.3400000 -20.4930000  30.1390000   3.1430000 -21.8730000
  29.9900000   5.5580000 -20.7870000  29.0350000   5.4310000 -20.2760000
  29.8500000   5.5300000 -21.8690000  30.4510000   6.4990000 -20.4830000
  28.6880000   7.7940000 -18.0480000  30.8220000   6.8900000 -16.9680000
  27.0800000   7.5300000 -13.3890000  26.6800000   7.5140000 -12.1040000
  25.8900000   6.7090000 -11.6410000  27.3290000   8.6370000 -11.3290000
  28.3470000   8.7610000 -11.7050000  26.7880000   9.5610000 -11.5410000
  27.3650000   8.3920000  -9.8090000  26.3480000   8.2300000  -9.4460000
  27.9310000   7.4820000  -9.5970000  27.9730000   9.5840000  -9.0400000
  27.3570000  10.4670000  -9.2220000  27.9210000   9.3780000  -7.9690000
  29.4310000   9.9270000  -9.4040000  29.4970000  10.1760000 -10.4650000
  29.7180000  10.8260000  -8.8540000  30.4390000   8.8090000  -9.0730000
  30.4290000   8.6220000  -7.9970000  30.1510000   7.8820000  -9.5720000
  31.8610000   9.1970000  -9.5260000  31.8680000   9.2860000 -10.6140000
  32.1160000  10.1790000  -9.1220000  32.9440000   8.1870000  -9.1070000
  32.6650000   7.1880000  -9.4490000  33.8690000   8.4630000  -9.6170000
  33.1890000   8.2170000  -7.6110000  33.0340000   9.1830000  -7.1370000
  33.5160000   7.1700000  -6.8620000  33.6490000   7.3030000  -5.7910000
  33.8060000   5.7770000  -7.3810000  34.1730000   5.8420000  -8.4070000
  34.6080000   5.3210000  -6.7960000  32.5660000   4.8610000  -7.3560000
  31.7120000   5.3980000  -7.7730000  32.7530000   4.0140000  -8.0210000
  32.2100000   4.2840000  -5.9710000  31.4990000   3.4670000  -6.1150000
  33.1060000   3.8520000  -5.5190000  31.5770000   5.2930000  -5.0000000
  32.2660000   6.1220000  -4.8210000  30.6720000   5.7010000  -5.4530000
  31.2250000   4.6560000  -3.6470000  30.5260000   3.8310000  -3.7980000
  32.1360000   4.2440000  -3.2070000  30.6010000   5.6930000  -2.6960000
  31.2740000   6.5480000  -2.6050000  29.6690000   6.0600000  -3.1300000
  30.3070000   5.1440000  -1.2900000  29.7980000   5.9190000  -0.7110000
  29.6310000   4.2890000  -1.3570000  31.5880000   4.7350000  -0.5500000
  31.3620000   4.5120000   0.4940000  32.3140000   5.5510000  -0.5770000
  32.0370000   3.8480000  -1.0020000   9.2960000  15.8090000  -1.4650000
   9.3500000  16.4900000  -0.6130000   9.1120000  14.8010000  -1.0870000
   8.4530000  16.1060000  -2.0930000  10.6060000  15.8500000  -2.2660000
  11.4350000  15.5870000  -1.6050000  10.7720000  16.8710000  -2.6150000
  10.5810000  14.8860000  -3.4680000   9.8120000  15.2070000  -4.1730000
  10.2970000  13.8910000  -3.1190000  11.9410000  14.7770000  -4.1900000
  11.8400000  14.0820000  -5.0270000  12.6650000  14.3370000  -3.5010000
  12.5130000  16.1110000  -4.7120000  13.4980000  15.9190000  -5.1420000
  12.6660000  16.7930000  -3.8730000  11.6350000  16.7980000  -5.7780000
  10.6330000  16.9680000  -5.3790000  11.5400000  16.1410000  -6.6450000
  12.2350000  18.1500000  -6.2100000  13.2420000  17.9970000  -6.6040000
  12.3330000  18.7800000  -5.3240000  11.3790000  18.9080000  -7.2440000
  11.7620000  19.9280000  -7.3190000  10.3550000  18.9830000  -6.8710000
  11.3550000  18.3070000  -8.6640000  10.6680000  18.9070000  -9.2640000
  10.9550000  17.2910000  -8.6370000  12.7370000  18.3050000  -9.3480000
  13.3600000  17.5230000  -8.9100000  13.2310000  19.2600000  -9.1590000
  12.6410000  18.0970000 -10.8740000  12.0270000  18.8920000 -11.3000000
  12.1430000  17.1470000 -11.0790000  14.0270000  18.1150000 -11.5510000
  14.5890000  17.2300000 -11.2460000  14.5790000  18.9870000 -11.1940000
  13.9820000  18.1920000 -13.0910000  15.0060000  18.1950000 -13.4720000
  13.5270000  19.1410000 -13.3840000  13.2040000  17.0370000 -13.7450000
  12.1760000  17.0520000 -13.3770000  13.6470000  16.0860000 -13.4440000
  13.1780000  17.1300000 -15.2870000  14.1850000  17.0220000 -15.6940000
  12.8060000  18.1120000 -15.5860000  12.2840000  16.0780000 -15.9000000
  12.0190000  15.0130000 -15.3660000  11.7990000  16.4540000 -17.1010000
  10.6770000  15.7170000 -17.6780000  10.7220000  14.6620000 -17.3990000
  10.7650000  15.7700000 -18.7670000   9.2990000  16.3250000 -17.2690000
   8.5070000  15.6350000 -17.5700000   9.0100000  17.6870000 -17.9550000
   7.9940000  18.0050000 -17.7080000   9.0820000  17.5710000 -19.0390000
   9.9360000  18.7210000 -17.5230000  10.0270000  20.1480000 -18.2640000
  11.1210000  19.8790000 -19.4060000  12.5120000  19.7560000 -19.0580000
  12.6320000  19.0280000 -18.2520000  12.8790000  20.7240000 -18.7070000
  13.2940000  19.3260000 -20.3190000  14.3580000  19.4840000 -20.1370000
  12.9910000  19.9520000 -21.1600000  13.1720000  17.8940000 -20.7780000
  11.7630000  17.5390000 -21.1250000  11.1480000  17.6830000 -20.2350000
  11.7290000  16.5000000 -21.4570000  11.4250000  18.2070000 -21.9180000
  14.0140000  17.7030000 -21.9960000  15.0490000  17.9350000 -21.7390000
  13.6570000  18.3740000 -22.7790000  13.9290000  16.6660000 -22.3220000
  13.6740000  16.9620000 -19.7260000  14.6960000  17.2530000 -19.4770000
  13.6470000  15.9410000 -20.1090000  13.0370000  17.0590000 -18.8450000
   8.7370000  20.4440000 -18.9430000  10.5780000  21.1470000 -17.3140000
   9.2400000  16.5260000 -15.8310000   9.0440000  15.4850000 -15.0070000
   8.6830000  14.3760000 -15.3710000   9.3640000  15.8630000 -13.5840000
   9.9260000  15.0550000 -13.1120000  10.0200000  16.7360000 -13.6130000
   8.1100000  16.1910000 -12.7520000   7.3780000  16.7230000 -13.3640000
   7.6500000  15.2540000 -12.4350000   8.4610000  17.0340000 -11.5080000
   7.6550000  16.9510000 -10.7760000   9.3470000  16.6070000 -11.0320000
   8.7290000  18.5260000 -11.8170000   9.1490000  18.9980000 -10.9260000
   9.4970000  18.6080000 -12.5890000   7.4860000  19.3290000 -12.2670000
   7.7800000  20.3700000 -12.4190000   7.1480000  18.9560000 -13.2360000
   6.3020000  19.2860000 -11.2780000   5.4750000  19.8660000 -11.6930000
   5.9430000  18.2590000 -11.1850000   6.6450000  19.8360000  -9.8810000
   7.5630000  19.3710000  -9.5160000   6.8390000  20.9070000  -9.9650000
   5.5000000  19.6050000  -8.9170000   4.5620000  20.0740000  -9.2040000
   5.5390000  18.8850000  -7.7990000   4.6350000  18.7980000  -7.2020000
   6.7400000  18.1440000  -7.2390000   6.6300000  17.0810000  -7.4640000
   7.6780000  18.4740000  -7.6890000   6.8460000  18.2960000  -5.7110000
   5.9190000  17.9510000  -5.2490000   7.6460000  17.6420000  -5.3580000
   7.1320000  19.7450000  -5.2660000   8.0640000  20.0900000  -5.7190000
   6.3350000  20.3930000  -5.6360000   7.2160000  19.9080000  -3.7360000
   7.2430000  20.9770000  -3.5120000   6.3080000  19.5060000  -3.2830000
   8.4520000  19.2290000  -3.1080000   8.4800000  18.1770000  -3.4000000
   9.3580000  19.6950000  -3.5010000   8.4710000  19.2960000  -1.5680000
   7.6200000  18.7350000  -1.1770000   9.3760000  18.8020000  -1.2100000
   8.4310000  20.7280000  -1.0030000   9.2570000  21.3090000  -1.4180000
   7.4990000  21.2150000  -1.2990000   8.5250000  20.7390000   0.5300000
   8.4810000  21.7650000   0.9040000   9.4660000  20.2920000   0.8570000
   7.6990000  20.1750000   0.9690000  55.3780000   0.7880000  -0.2260000
  55.4290000  -0.0810000   0.4340000  54.3730000   0.8330000  -0.6500000
  55.5450000   1.6850000   0.3740000  56.4420000   0.6720000  -1.3320000
  56.2510000  -0.2260000  -1.9230000  57.4200000   0.5470000  -0.8630000
  56.4950000   1.8980000  -2.2660000  57.3400000   1.7800000  -2.9480000
  56.6830000   2.7940000  -1.6710000  55.2110000   2.0950000  -3.0950000
  54.3610000   2.2370000  -2.4240000  55.0210000   1.1900000  -3.6760000
  55.3120000   3.3070000  -4.0420000  56.0810000   3.1120000  -4.7930000
  55.6350000   4.1800000  -3.4710000  53.9860000   3.6520000  -4.7480000
  54.1470000   4.5270000  -5.3820000  53.2440000   3.9380000  -3.9980000
  53.4290000   2.5030000  -5.6110000  53.2420000   1.6270000  -4.9870000
  54.1750000   2.2240000  -6.3580000  52.1180000   2.8910000  -6.3200000
  52.2820000   3.8080000  -6.8900000  51.3510000   3.0990000  -5.5710000
  51.6280000   1.7750000  -7.2630000  51.5520000   0.8420000  -6.7010000
  52.3730000   1.6190000  -8.0460000  50.2630000   2.0610000  -7.9220000
  49.4990000   2.1350000  -7.1450000  50.0050000   1.2050000  -8.5480000
  50.2440000   3.3470000  -8.7750000  51.0450000   3.3070000  -9.5160000
  50.4430000   4.2060000  -8.1310000  48.9020000   3.5910000  -9.4920000
  48.9330000   4.5860000  -9.9400000  48.0950000   3.5930000  -8.7570000
  48.5880000   2.5720000 -10.6040000  48.5250000   1.5680000 -10.1800000
  49.4050000   2.5740000 -11.3290000  47.2610000   2.8990000 -11.3200000
  47.3090000   3.9070000 -11.7360000  46.4550000   2.8950000 -10.5820000
  46.9090000   1.8980000 -12.4390000  45.8930000   2.0840000 -12.7930000
  46.9310000   0.8790000 -12.0460000  47.8540000   2.0090000 -13.6120000
  47.7870000   2.8740000 -14.4700000  48.7900000   1.0390000 -13.6100000
  49.8220000   1.0650000 -14.6440000  49.3710000   1.2700000 -15.6180000
  50.2920000   0.0790000 -14.6830000  50.9100000   2.1210000 -14.3140000
  50.4210000   3.0810000 -14.1300000  51.9290000   2.2800000 -15.4720000
  52.7530000   2.9250000 -15.1540000  51.4340000   2.7660000 -16.3160000
  52.4730000   0.9940000 -15.8890000  52.2900000   0.4460000 -17.3970000
  53.2820000   1.3970000 -18.2230000  54.7030000   1.1670000 -18.1990000
  54.9650000   0.4010000 -18.9330000  54.9900000   0.8100000 -17.2070000
  55.4440000   2.4970000 -18.4720000  56.5160000   2.3170000 -18.3830000
  55.1600000   3.2270000 -17.7120000  55.2480000   3.1760000 -19.8070000
  53.8770000   3.7530000 -19.9370000  53.1560000   2.9350000 -19.8930000
  53.8040000   4.2730000 -20.8930000  53.7110000   4.4440000 -19.1100000
  56.2260000   4.2990000 -19.9160000  57.2360000   3.8910000 -19.8560000
  56.0490000   4.9950000 -19.0950000  56.0770000   4.7990000 -20.8740000
  55.4920000   2.2330000 -20.9390000  56.4940000   1.8130000 -20.8350000
  55.4070000   2.7850000 -21.8760000  54.7400000   1.4440000 -20.8980000
  52.7990000  -0.9520000 -17.4570000  50.8970000   0.7200000 -17.8410000
  51.6180000   1.6880000 -13.1200000  52.2500000   2.6000000 -12.3600000
  52.1920000   3.8050000 -12.5390000  53.0720000   1.9480000 -11.2780000
  53.1820000   2.6350000 -10.4360000  52.5430000   1.0620000 -10.9220000
  54.4560000   1.5490000 -11.8290000  54.3300000   1.0950000 -12.8140000
  55.0690000   2.4420000 -11.9640000  55.1970000   0.5370000 -10.9360000
  54.5780000  -0.3590000 -10.8550000  56.1250000   0.2440000 -11.4310000
  55.5300000   1.0730000  -9.5300000  56.1710000   1.9510000  -9.6270000
  54.6170000   1.4030000  -9.0300000  56.2480000   0.0320000  -8.6450000
  57.2220000  -0.1940000  -9.0830000  56.4360000   0.4780000  -7.6660000
  55.4760000  -1.2910000  -8.4480000  55.4100000  -1.8270000  -9.3970000
  56.0450000  -1.9250000  -7.7650000  54.0630000  -1.0810000  -7.8770000
  54.1400000  -0.5330000  -6.9350000  53.4770000  -0.4600000  -8.5580000
  53.3300000  -2.3920000  -7.6850000  52.7650000  -2.7320000  -8.5490000
  53.2580000  -3.0790000  -6.5490000  52.6570000  -3.9840000  -6.5150000
  54.0340000  -2.7720000  -5.2850000  54.1540000  -3.6880000  -4.7020000
  55.0400000  -2.4320000  -5.5420000  53.3550000  -1.6990000  -4.4120000
  54.0060000  -1.4850000  -3.5620000  53.2690000  -0.7750000  -4.9880000
  51.9570000  -2.0910000  -3.8930000  51.3640000  -2.5060000  -4.7110000
  52.0550000  -2.8710000  -3.1350000  51.1940000  -0.8860000  -3.3090000
  51.0200000  -0.1680000  -4.1140000  50.2150000  -1.2240000  -2.9630000
  51.9300000  -0.1900000  -2.1450000  52.1120000  -0.9210000  -1.3550000
  52.9030000   0.1730000  -2.4830000  51.1410000   0.9930000  -1.5530000
  50.1510000   0.6430000  -1.2550000  51.6490000   1.3350000  -0.6490000
  51.0050000   2.1840000  -2.5240000  52.0050000   2.5320000  -2.7930000
  50.5120000   1.8660000  -3.4460000  50.2140000   3.3590000  -1.9260000
  50.2430000   4.2150000  -2.6030000  50.6380000   3.6610000  -0.9660000
  49.1690000   3.0820000  -1.7720000  45.6280000 -28.6470000  -0.9780000
  45.9190000 -29.6990000  -1.0000000  45.9480000 -28.2200000  -0.0250000
  46.1520000 -28.1310000  -1.7860000  44.1040000 -28.5190000  -1.1430000
  43.6190000 -29.1280000  -0.3780000  43.8110000 -28.9320000  -2.1100000
  43.5900000 -27.0700000  -1.0150000  43.8080000 -26.7070000  -0.0090000
  42.5030000 -27.0760000  -1.1200000  44.1830000 -26.0760000  -2.0350000
  45.2590000 -25.9820000  -1.8730000  43.7480000 -25.0930000  -1.8440000
  43.9210000 -26.4610000  -3.5050000  42.8510000 -26.6180000  -3.6520000
  44.4320000 -27.3960000  -3.7420000  44.4090000 -25.3600000  -4.4620000
  45.4830000 -25.2130000  -4.3260000  43.9130000 -24.4240000  -4.1960000
  44.1210000 -25.6640000  -5.9430000  43.0520000 -25.8440000  -6.0760000
  44.6480000 -26.5730000  -6.2380000  44.5570000 -24.4960000  -6.8480000
  45.6240000 -24.3130000  -6.7020000  44.0260000 -23.5900000  -6.5510000
  44.2940000 -24.7760000  -8.3380000  43.2260000 -24.9320000  -8.4990000
  44.8070000 -25.6980000  -8.6170000  44.7820000 -23.6160000  -9.2270000
  45.8320000 -23.4140000  -9.0030000  44.2210000 -22.7130000  -8.9750000
  44.6510000 -23.8880000 -10.7370000  44.8550000 -22.9620000 -11.2790000
  43.6270000 -24.1850000 -10.9720000  45.6370000 -24.9690000 -11.2170000
  45.4140000 -25.9150000 -10.7190000  46.6460000 -24.6720000 -10.9220000
  45.5890000 -25.1840000 -12.7400000  45.8360000 -24.2480000 -13.2460000
  44.5710000 -25.4510000 -13.0300000  46.5480000 -26.2910000 -13.2230000
  46.4120000 -26.4260000 -14.2980000  46.2820000 -27.2370000 -12.7470000
  48.0290000 -25.9720000 -12.9410000  48.2130000 -25.9210000 -11.8660000
  48.2830000 -25.0010000 -13.3700000  48.9320000 -27.0270000 -13.5290000
  49.1890000 -28.0780000 -12.9600000  49.4440000 -26.6530000 -14.7200000
  50.1780000 -27.6240000 -15.5240000  50.7600000 -28.2910000 -14.8830000
  50.8810000 -27.0700000 -16.1510000  49.2530000 -28.4550000 -16.4610000
  49.9040000 -29.1300000 -17.0230000  48.4720000 -27.5650000 -17.4680000
  48.0470000 -28.1930000 -18.2550000  49.1670000 -26.8620000 -17.9340000
  47.3940000 -26.8230000 -16.8330000  46.5140000 -25.7560000 -17.6620000
  45.6260000 -26.7010000 -18.6130000  44.5580000 -27.4910000 -18.0590000
  43.8870000 -26.8390000 -17.4950000  44.9690000 -28.2400000 -17.3760000
  43.7590000 -28.1520000 -19.2070000  43.3920000 -27.3720000 -19.8760000
  42.8950000 -28.6630000 -18.7780000  44.4500000 -29.1710000 -20.0830000
  45.0580000 -30.2670000 -19.2700000  45.8550000 -29.8460000 -18.6550000
  45.4700000 -31.0140000 -19.9510000  44.2820000 -30.7140000 -18.6470000
  43.4350000 -29.7750000 -20.9960000  42.9930000 -28.9810000 -21.5990000
  42.6680000 -30.2650000 -20.3940000  43.9330000 -30.5030000 -21.6380000
  45.5070000 -28.5460000 -20.9320000  45.0510000 -27.7540000 -21.5270000
  45.9390000 -29.3120000 -21.5780000  46.2720000 -28.1250000 -20.2770000
  45.6080000 -25.0460000 -16.7210000  47.4240000 -24.9470000 -18.5210000
  48.3320000 -29.2450000 -15.6550000  47.7710000 -30.3440000 -16.1910000
  47.9460000 -30.7130000 -17.3410000  46.8900000 -31.0790000 -15.2120000
  46.8470000 -32.1320000 -15.5010000  47.3320000 -31.0250000 -14.2160000
  45.4690000 -30.4860000 -15.1860000  45.5200000 -29.4620000 -14.8080000
  45.0770000 -30.4430000 -16.2040000  44.5100000 -31.3260000 -14.3180000
  44.4910000 -32.3440000 -14.7120000  44.8970000 -31.3880000 -13.2990000
  43.0670000 -30.7790000 -14.3050000  42.7290000 -30.6630000 -15.3370000
  42.4110000 -31.5180000 -13.8400000  42.9050000 -29.4330000 -13.5680000
  43.6580000 -28.7260000 -13.9230000  41.9300000 -29.0090000 -13.8180000
  43.0030000 -29.5730000 -12.0370000  42.1240000 -30.1090000 -11.6720000
  43.8790000 -30.1700000 -11.7750000  43.1060000 -28.2120000 -11.3250000
  43.9610000 -27.6590000 -11.7190000  42.2170000 -27.6180000 -11.5490000
  43.2280000 -28.3870000  -9.8250000  42.2920000 -28.3100000  -9.2770000
  44.3520000 -28.6230000  -9.1550000  44.3080000 -28.7330000  -8.0750000
  45.7390000 -28.7520000  -9.7570000  45.9660000 -29.8080000  -9.9240000
  45.7920000 -28.2630000 -10.7320000  46.8270000 -28.1510000  -8.8420000
  47.7900000 -28.2340000  -9.3510000  46.6330000 -27.0840000  -8.7130000
  46.9500000 -28.8050000  -7.4470000  47.7800000 -28.3260000  -6.9220000
  46.0480000 -28.6010000  -6.8660000  47.1870000 -30.3290000  -7.5010000
  46.3370000 -30.8080000  -7.9900000  48.0690000 -30.5350000  -8.1110000
  47.3670000 -30.9880000  -6.1200000  46.4780000 -30.8020000  -5.5140000
  47.4400000 -32.0680000  -6.2650000  48.6240000 -30.5030000  -5.3700000
  49.4800000 -30.5540000  -6.0460000  48.5010000 -29.4560000  -5.0840000
  48.9390000 -31.3350000  -4.1120000  49.0680000 -32.3830000  -4.3910000
  49.8880000 -30.9950000  -3.6920000  47.8510000 -31.2270000  -3.0310000
  48.1390000 -31.8000000  -2.1470000  46.8990000 -31.6180000  -3.3970000
  47.7090000 -30.1850000  -2.7370000  19.5850000  10.1750000  -4.4810000
  19.4950000   9.2500000  -5.0550000  18.6090000  10.6630000  -4.4500000
  19.8790000   9.9160000  -3.4610000  20.6320000  11.0970000  -5.1260000
  20.3220000  11.3320000  -6.1460000  21.5810000  10.5590000  -5.1850000
  20.8300000  12.4010000  -4.3320000  20.9730000  12.1500000  -3.2790000
  19.9280000  13.0120000  -4.4000000  22.0490000  13.2260000  -4.7870000
  22.9430000  12.6090000  -4.6700000  22.1640000  14.0760000  -4.1120000
  21.9820000  13.7520000  -6.2370000  21.1470000  14.4480000  -6.3350000
  21.8070000  12.9240000  -6.9270000  23.3000000  14.4580000  -6.6110000
  24.1080000  13.7240000  -6.5740000  23.5250000  15.2140000  -5.8550000
  23.3210000  15.1370000  -7.9920000  24.3030000  15.5940000  -8.1340000
  22.5910000  15.9490000  -8.0050000  23.0270000  14.2050000  -9.1800000
  21.9850000  13.8840000  -9.1270000  23.6570000  13.3150000  -9.1250000
  23.2710000  14.9360000 -10.5140000  24.3450000  15.0530000 -10.6760000
  22.8630000  15.9470000 -10.4430000  22.6330000  14.2470000 -11.7330000
  22.8020000  14.8730000 -12.6120000  21.5530000  14.1940000 -11.5860000
  23.1630000  12.8320000 -12.0270000  22.6450000  12.4580000 -12.9120000
  22.9080000  12.1650000 -11.2020000  24.6880000  12.7870000 -12.2520000
  25.1900000  12.8990000 -11.2890000  24.9950000  13.6280000 -12.8780000
  25.1560000  11.4760000 -12.9090000  24.7010000  10.6260000 -12.3960000
  26.2380000  11.3930000 -12.7860000  24.8340000  11.4350000 -14.4160000
  25.3690000  12.2550000 -14.9000000  23.7690000  11.6040000 -14.5840000
  25.2460000  10.1200000 -15.1000000  26.1880000   9.7490000 -14.6900000
  25.4180000  10.3240000 -16.1590000  24.1860000   9.0440000 -15.0040000
  23.4070000   8.9190000 -14.0760000  24.2470000   8.2070000 -16.0590000
  23.1300000   7.3190000 -16.3580000  22.7410000   6.8810000 -15.4360000
  23.5180000   6.5060000 -16.9770000  21.9700000   8.0030000 -17.1470000
  21.2290000   7.2150000 -17.2980000  22.3600000   8.5370000 -18.5590000
  21.5340000   9.1230000 -18.9700000  22.4980000   7.6700000 -19.2110000
  23.5970000   9.3080000 -18.6030000  23.6540000  10.8940000 -18.9410000
  23.3850000  11.6150000 -17.5200000  22.1050000  12.1790000 -17.1820000
  21.9910000  12.1610000 -16.0950000  21.3090000  11.5690000 -17.6180000
  22.0110000  13.6350000 -17.7040000  21.0270000  14.0290000 -17.4480000
  22.0970000  13.6290000 -18.7920000  23.0120000  14.6570000 -17.2080000
  23.1410000  14.6240000 -15.7180000  22.1560000  14.7790000 -15.2750000
  23.8270000  15.4150000 -15.4100000  23.5430000  13.6520000 -15.4300000
  24.3590000  14.4470000 -17.8180000  24.2600000  14.4960000 -18.9030000
  24.7230000  13.4620000 -17.5240000  25.0370000  15.2240000 -17.4610000
  22.5420000  16.0180000 -17.6080000  22.4510000  16.0470000 -18.6950000
  23.2740000  16.7550000 -17.2740000  21.5740000  16.2080000 -17.1420000
  25.0450000  11.2270000 -19.3560000  22.5480000  11.2320000 -19.8840000
  21.3480000   9.0440000 -16.3370000  20.0310000   9.2790000 -16.5200000
  19.3980000   8.8820000 -17.4840000  19.4060000  10.1260000 -15.4320000
  19.7320000  11.1620000 -15.5480000  18.3240000  10.1050000 -15.5750000
  19.7420000   9.6390000 -14.0050000  19.7950000   8.5490000 -13.9870000
  20.7230000  10.0220000 -13.7180000  18.6690000  10.1000000 -12.9970000
  18.4080000  11.1420000 -13.1890000  17.7670000   9.5110000 -13.1730000
  19.0660000   9.9520000 -11.5140000  18.1580000   9.9780000 -10.9090000
  19.5370000   8.9800000 -11.3500000  19.9970000  11.0860000 -11.0420000
  20.9530000  11.0120000 -11.5640000  19.5530000  12.0440000 -11.3230000
  20.2290000  11.1010000  -9.5150000  20.7790000  12.0070000  -9.2530000
  19.2630000  11.1630000  -9.0100000  21.0010000   9.8870000  -8.9660000
  21.0450000   9.9560000  -7.8770000  20.4430000   8.9770000  -9.1980000
  22.3920000   9.7940000  -9.5600000  22.4230000   9.6140000 -10.6320000
  23.5310000   9.8480000  -8.8800000  24.4720000   9.7310000  -9.4110000
  23.6480000  10.1350000  -7.4000000  23.0780000  11.0330000  -7.1540000
  23.2420000   9.3020000  -6.8230000  25.1210000  10.3450000  -7.0130000
  25.6470000   9.3900000  -7.0700000  25.5840000  11.0170000  -7.7390000
  25.3140000  10.9580000  -5.6150000  26.3810000  11.1220000  -5.4530000
  24.8400000  11.9420000  -5.6070000  24.7470000  10.1310000  -4.4470000
  23.6630000  10.0450000  -4.5490000  25.1620000   9.1220000  -4.4730000
  25.0930000  10.7960000  -3.1010000  26.1740000  10.9340000  -3.0440000
  24.6400000  11.7890000  -3.0670000  24.6440000   9.9980000  -1.8640000
  25.1050000   9.0080000  -1.8860000  25.0180000  10.5070000  -0.9730000
  23.1160000   9.8510000  -1.7480000  22.6490000  10.8370000  -1.7890000
  22.7320000   9.2690000  -2.5880000  22.7160000   9.1620000  -0.4340000
  21.6300000   9.0660000  -0.3740000  23.0570000   9.7510000   0.4200000
  23.1620000   8.1680000  -0.3680000 -25.6100000  19.1550000  -2.4620000
 -25.7800000  18.0820000  -2.3460000 -26.3650000  19.6920000  -1.8840000
 -24.6250000  19.3920000  -2.0550000 -25.6820000  19.5490000  -3.9450000
 -26.6540000  19.2660000  -4.3540000 -24.9170000  19.0000000  -4.4980000
 -25.4690000  21.0600000  -4.1290000 -24.5450000  21.3530000  -3.6270000
 -26.2850000  21.6000000  -3.6440000 -25.3960000  21.4710000  -5.6100000
 -26.3440000  21.2420000  -6.1000000 -24.6140000  20.8970000  -6.1120000
 -25.0900000  22.9710000  -5.7470000 -24.1300000  23.1860000  -5.2730000
 -25.8540000  23.5370000  -5.2090000 -25.0540000  23.4470000  -7.2090000
 -26.0430000  23.3040000  -7.6510000 -24.3440000  22.8460000  -7.7800000
 -24.6670000  24.9320000  -7.3050000 -23.6510000  25.0700000  -6.9310000
 -25.3280000  25.5170000  -6.6630000 -24.7630000  25.4720000  -8.7420000
 -25.7300000  25.2050000  -9.1720000 -23.9870000  25.0060000  -9.3530000
 -24.5950000  27.0000000  -8.7590000 -23.6520000  27.2440000  -8.2650000
 -25.3950000  27.4650000  -8.1790000 -24.5650000  27.6120000 -10.1680000
 -23.7330000  27.1650000 -10.7170000 -24.3580000  28.6800000 -10.0770000
 -25.8520000  27.4240000 -10.9900000 -26.7100000  27.8120000 -10.4380000
 -26.0260000  26.3610000 -11.1680000 -25.7240000  28.1540000 -12.3390000
 -24.8190000  27.7990000 -12.8370000 -25.5910000  29.2230000 -12.1600000
 -26.9470000  27.9410000 -13.2480000 -27.8200000  28.3560000 -12.7400000
 -27.1260000  26.8710000 -13.3790000 -26.8320000  28.6140000 -14.6320000
 -26.3260000  29.5760000 -14.5350000 -27.8440000  28.8270000 -14.9840000
 -26.1380000  27.7540000 -15.7120000 -26.1900000  28.2670000 -16.6740000
 -26.6690000  26.8060000 -15.8220000 -24.6900000  27.4810000 -15.3980000
 -23.8020000  28.3040000 -15.5340000 -24.4970000  26.2300000 -14.9440000
 -23.1870000  25.8660000 -14.4160000 -23.0990000  26.2500000 -13.3960000
 -22.4000000  26.3130000 -15.0280000 -22.9840000  24.3250000 -14.4190000
 -22.2990000  24.0600000 -13.6090000 -22.3400000  23.8230000 -15.7330000
 -22.4640000  22.7380000 -15.7850000 -21.2700000  24.0470000 -15.7310000
 -22.9390000  24.4490000 -16.9010000 -23.4530000  23.5540000 -18.1350000
 -24.6610000  22.7210000 -17.4810000 -25.8820000  23.3740000 -17.0860000
 -25.6620000  24.3910000 -16.7530000 -26.3080000  22.8280000 -16.2400000
 -26.8870000  23.3910000 -18.2630000 -26.4570000  23.9530000 -19.0930000
 -27.7930000  23.9040000 -17.9390000 -27.3390000  22.0690000 -18.8390000
 -28.4960000  22.3150000 -19.7490000 -29.3040000  22.7720000 -19.1750000
 -28.8210000  21.3600000 -20.1650000 -28.1730000  22.9850000 -20.5470000
 -26.2600000  21.4250000 -19.6420000 -25.4250000  21.2040000 -18.9750000
 -25.9430000  22.1230000 -20.4190000 -26.6490000  20.5060000 -20.0820000
 -27.7760000  21.1230000 -17.7690000 -26.9150000  20.9040000 -17.1350000
 -28.1310000  20.2050000 -18.2390000 -28.5740000  21.5900000 -17.1890000
 -23.9940000  24.4590000 -19.1850000 -22.3720000  22.6010000 -18.4980000
 -24.2460000  23.6300000 -14.2010000 -24.8350000  23.7420000 -12.9970000
 -24.2950000  24.2350000 -12.0210000 -26.2420000  23.1870000 -12.9970000
 -26.9410000  24.0110000 -13.1500000 -26.3510000  22.5060000 -13.8440000
 -26.5780000  22.4330000 -11.6950000 -25.8780000  21.6040000 -11.5720000
 -26.4490000  23.1040000 -10.8430000 -28.0200000  21.8870000 -11.7010000
 -28.7270000  22.7200000 -11.7040000 -28.1840000  21.3440000 -12.6340000
 -28.3290000  20.9240000 -10.5340000 -29.3810000  20.6360000 -10.5810000
 -27.7540000  20.0120000 -10.7090000 -27.9980000  21.4080000  -9.1040000
 -27.9820000  20.5210000  -8.4660000 -26.9880000  21.8200000  -9.0680000
 -28.9940000  22.3980000  -8.4610000 -30.0080000  22.0050000  -8.5650000
 -28.7810000  22.4340000  -7.3910000 -28.9470000  23.8400000  -8.9990000
 -27.9210000  24.2130000  -8.9670000 -29.2630000  23.8390000 -10.0450000
 -29.9010000  24.7250000  -8.2230000 -30.9290000  24.3700000  -8.2050000
 -29.6120000  25.8700000  -7.6130000 -30.4120000  26.4080000  -7.1100000
 -28.2510000  26.5280000  -7.5050000 -27.4440000  25.8300000  -7.7380000
 -28.2020000  27.3430000  -8.2300000 -28.0160000  27.1240000  -6.1020000
 -27.1300000  27.7600000  -6.1300000 -28.8610000  27.7660000  -5.8430000
 -27.8240000  26.0590000  -5.0030000 -28.5990000  25.2940000  -5.0860000
 -26.8650000  25.5590000  -5.1580000 -27.8670000  26.6670000  -3.5860000
 -27.1130000  27.4520000  -3.4970000 -28.8410000  27.1380000  -3.4410000
 -27.6570000  25.6220000  -2.4720000 -27.9630000  26.0650000  -1.5220000
 -28.3100000  24.7660000  -2.6540000 -26.1930000  25.1460000  -2.3520000
 -25.8330000  24.8200000  -3.3300000 -25.5720000  25.9900000  -2.0470000
 -25.9910000  23.9870000  -1.3560000 -26.5710000  23.1220000  -1.6840000
 -24.9390000  23.6940000  -1.3730000 -26.3820000  24.3390000   0.0890000
 -26.1480000  23.5070000   0.7560000 -27.4520000  24.5430000   0.1630000
 -25.8330000  25.2190000   0.4310000 -21.1420000  26.6890000  -2.2960000
 -20.8440000  26.4730000  -1.2680000 -20.6940000  27.6420000  -2.5860000
 -20.7420000  25.9070000  -2.9440000 -22.6770000  26.7420000  -2.4040000
 -23.0610000  27.5010000  -1.7190000 -23.0820000  25.7800000  -2.0830000
 -23.1750000  27.0450000  -3.8290000 -24.2590000  26.9150000  -3.8650000
 -22.7400000  26.3200000  -4.5200000 -22.8320000  28.4740000  -4.2940000
 -21.7590000  28.6450000  -4.1900000 -23.3430000  29.1990000  -3.6570000
 -23.2260000  28.7110000  -5.7600000 -24.3110000  28.6490000  -5.8570000
 -22.7940000  27.9120000  -6.3660000 -22.7270000  30.0640000  -6.3020000
 -21.6370000  30.0970000  -6.2330000 -23.1170000  30.8760000  -5.6850000
 -23.1630000  30.2620000  -7.7650000 -24.2530000  30.3090000  -7.8070000
 -22.8700000  29.3820000  -8.3420000 -22.5830000  31.5070000  -8.4620000
 -22.8620000  32.4070000  -7.9100000 -23.0420000  31.5790000  -9.4500000
 -21.0520000  31.4490000  -8.6280000 -20.7650000  30.4510000  -8.9660000
 -20.5720000  31.6160000  -7.6620000 -20.5330000  32.4790000  -9.6490000
 -20.8010000  33.4860000  -9.3200000 -21.0280000  32.3020000 -10.6060000
 -19.0050000  32.3880000  -9.8310000 -18.7280000  31.3680000 -10.1050000
 -18.5280000  32.5970000  -8.8710000 -18.4480000  33.3760000 -10.8780000
 -17.3570000  33.3460000 -10.8460000 -18.7400000  34.3880000 -10.5880000
 -18.9210000  33.1320000 -12.3280000 -18.5110000  33.9200000 -12.9630000
 -20.0070000  33.2300000 -12.3740000 -18.5210000  31.7680000 -12.9260000
 -18.9890000  31.6730000 -13.9080000 -18.9220000  30.9630000 -12.3070000
 -16.9960000  31.5890000 -13.0910000 -16.4950000  31.6520000 -12.1230000
 -16.5960000  32.3800000 -13.7270000 -16.6870000  30.2470000 -13.7060000
 -16.7920000  29.1970000 -13.0970000 -16.3180000  30.3340000 -15.0020000
 -16.2960000  29.1170000 -15.8120000 -16.0580000  28.2380000 -15.2060000
 -15.5130000  29.2240000 -16.5670000 -17.6540000  28.9300000 -16.5410000
 -17.6790000  27.9500000 -17.0250000 -17.8600000  30.0040000 -17.6280000
 -17.3530000  30.9380000 -17.3710000 -18.9310000  30.2060000 -17.7200000
 -17.3640000  29.4970000 -18.8940000 -17.9970000  29.9860000 -20.2960000
 -19.5010000  29.4260000 -20.2090000 -19.7730000  28.0150000 -20.2860000
 -19.2240000  27.4880000 -19.5010000 -19.4390000  27.6410000 -21.2570000
 -21.2970000  27.7880000 -20.1450000 -21.5070000  26.7260000 -20.2860000
 -21.8120000  28.3420000 -20.9310000 -21.9750000  28.1680000 -18.8480000
 -21.3370000  27.4920000 -17.6790000 -21.4130000  26.4130000 -17.8220000
 -21.8760000  27.7950000 -16.7810000 -20.2930000  27.8050000 -17.6230000
 -21.9780000  29.6440000 -18.6210000 -22.4700000  30.1220000 -19.4690000
 -20.9450000  29.9870000 -18.5510000 -22.5140000  29.8560000 -17.6960000
 -23.3980000  27.7340000 -18.9130000 -23.8640000  28.1910000 -19.7870000
 -23.9000000  28.0570000 -18.0000000 -23.4230000  26.6460000 -18.9960000
 -18.0530000  31.4720000 -20.3000000 -17.2850000  29.2900000 -21.4020000
 -18.7670000  29.0330000 -15.6130000 -19.0680000  27.9800000 -14.8310000
 -18.5330000  26.8900000 -14.9120000 -20.1750000  28.3200000 -13.8630000
 -20.2460000  29.4060000 -13.7790000 -21.1240000  27.9700000 -14.2720000
 -19.9340000  27.7210000 -12.4650000 -19.8960000  26.6310000 -12.5300000
 -18.9700000  28.0640000 -12.0840000 -21.0400000  28.1450000 -11.4860000
 -21.1420000  29.2320000 -11.5180000 -21.9920000  27.7240000 -11.8170000
 -20.7560000  27.7330000 -10.0310000 -19.7980000  28.1670000  -9.7380000
 -21.5190000  28.1820000  -9.3930000 -20.7480000  26.2120000  -9.7730000
 -21.7000000  25.7910000 -10.1040000 -19.9600000  25.7360000 -10.3610000
 -20.5460000  25.8740000  -8.2810000 -21.3170000  26.3750000  -7.6920000
 -20.6830000  24.7990000  -8.1410000 -19.1540000  26.2790000  -7.7560000
 -18.3940000  25.7140000  -8.3000000 -18.9710000  27.3350000  -7.9650000
 -19.0030000  26.0130000  -6.2720000 -18.8420000  24.9730000  -6.0000000
 -18.9690000  26.9450000  -5.3250000 -18.8110000  26.6480000  -4.2910000
 -19.2250000  28.4250000  -5.5340000 -19.9700000  28.5650000  -6.3200000
 -19.6520000  28.8460000  -4.6210000 -17.9560000  29.2170000  -5.9030000
 -17.5990000  28.8770000  -6.8780000 -18.2190000  30.2710000  -6.0150000
 -16.7990000  29.0940000  -4.8930000 -16.4990000  28.0470000  -4.8230000
 -15.9430000  29.6470000  -5.2870000 -17.1210000  29.6240000  -3.4820000
 -17.4350000  30.6670000  -3.5550000 -17.9510000  29.0570000  -3.0530000
 -15.8950000  29.5030000  -2.5560000 -15.6170000  28.4490000  -2.4820000
 -15.0520000  30.0310000  -3.0040000 -16.1120000  30.0380000  -1.1300000
 -16.9810000  29.5460000  -0.6890000 -15.2410000  29.7690000  -0.5290000
 -16.2910000  31.5660000  -1.0830000 -15.4200000  32.0380000  -1.5400000
 -17.1630000  31.8450000  -1.6780000 -16.4720000  32.1130000   0.3430000
 -16.5450000  33.2020000   0.3200000 -15.6240000  31.8360000   0.9720000
 -17.3840000  31.7180000   0.7950000  51.6320000  -9.1750000  -0.8280000
  51.9890000 -10.2030000  -0.7390000  51.0160000  -8.9440000   0.0430000
  52.4970000  -8.5090000  -0.8330000  50.8070000  -9.0080000  -2.1130000
  50.0270000  -9.7710000  -2.1310000  51.4480000  -9.1880000  -2.9790000
  50.1420000  -7.6240000  -2.2290000  49.4230000  -7.5200000  -1.4130000
  49.5660000  -7.5920000  -3.1560000  51.1020000  -6.4170000  -2.1760000
  51.5680000  -6.3850000  -1.1890000  50.5090000  -5.5040000  -2.2610000
  52.2180000  -6.3740000  -3.2420000  52.8650000  -7.2490000  -3.1470000
  52.8450000  -5.5110000  -3.0060000  51.7350000  -6.2000000  -4.7000000
  52.5090000  -5.6590000  -5.2470000  50.8530000  -5.5560000  -4.7090000
  51.4220000  -7.4960000  -5.4830000  51.0850000  -7.2180000  -6.4840000
  50.5840000  -8.0150000  -5.0140000  52.6020000  -8.4840000  -5.6120000
  52.2740000  -9.3430000  -6.2000000  52.8610000  -8.8670000  -4.6230000
  53.8770000  -7.9020000  -6.2510000  54.6590000  -8.6630000  -6.2010000
  54.2310000  -7.0500000  -5.6660000  53.6860000  -7.4880000  -7.7230000
  52.9350000  -6.7000000  -7.8040000  53.3110000  -8.3480000  -8.2820000
  55.0010000  -7.0160000  -8.3680000  54.9200000  -7.1340000  -9.4500000
  55.8200000  -7.6570000  -8.0350000  55.3250000  -5.5440000  -8.0470000
  55.1900000  -5.3640000  -6.9780000  54.6150000  -4.9000000  -8.5700000
  56.7630000  -5.1380000  -8.4210000  57.4450000  -5.6280000  -7.7230000
  56.8780000  -4.0620000  -8.2760000  57.2000000  -5.5050000  -9.8520000
  57.2240000  -6.5920000  -9.9490000  58.2250000  -5.1540000  -9.9920000
  56.3080000  -4.9130000 -10.9640000  56.2990000  -3.8230000 -10.9010000
  55.2780000  -5.2550000 -10.8400000  56.7830000  -5.3160000 -12.3430000
  57.9430000  -5.5830000 -12.6110000  55.7770000  -5.3390000 -13.2450000
  56.0590000  -5.7930000 -14.6070000  57.1000000  -5.6030000 -14.8810000
  55.4340000  -5.2110000 -15.2900000  55.7160000  -7.2970000 -14.7990000
  56.0530000  -7.6120000 -15.7900000  54.1910000  -7.5420000 -14.7330000
  53.6970000  -6.9020000 -15.4680000  53.8110000  -7.2970000 -13.7380000
  53.8970000  -8.9340000 -15.0420000  52.4320000  -9.3980000 -15.5350000
  52.4150000  -8.9280000 -17.0730000  53.1740000  -9.6460000 -18.0640000
  52.8210000 -10.6790000 -18.1280000  54.2240000  -9.6570000 -17.7600000
  53.0450000  -8.9340000 -19.4300000  53.7170000  -9.4210000 -20.1380000
  53.3600000  -7.8950000 -19.3240000  51.6930000  -8.9020000 -20.1040000
  50.7270000  -8.0360000 -19.3660000  50.5810000  -8.4570000 -18.3700000
  49.7830000  -8.0150000 -19.9130000  51.1490000  -7.0330000 -19.2890000
  51.8570000  -8.3360000 -21.4750000  52.5390000  -8.9760000 -22.0380000
  52.2670000  -7.3290000 -21.3900000  50.8810000  -8.3070000 -21.9610000
  51.1180000 -10.2750000 -20.2350000  51.8320000 -10.9030000 -20.7690000
  50.1820000 -10.2080000 -20.7910000  50.9330000 -10.6700000 -19.2350000
  52.3700000 -10.8860000 -15.4890000  51.4030000  -8.6160000 -14.7970000
  56.3500000  -8.1230000 -13.7800000  57.6300000  -8.5060000 -13.9500000
  58.3440000  -8.1230000 -14.8630000  58.0780000  -9.4970000 -12.9000000
  57.4650000 -10.3950000 -13.0020000  59.1160000  -9.7750000 -13.0940000
  57.9480000  -8.9380000 -11.4670000  58.4980000  -7.9960000 -11.4030000
  56.9000000  -8.7130000 -11.2550000  58.4930000  -9.8890000 -10.3820000
  59.5760000  -9.9680000 -10.5040000  58.3230000  -9.4390000  -9.4010000
  57.9000000 -11.3140000 -10.4020000  58.1830000 -11.8020000 -11.3370000
  58.3610000 -11.8960000  -9.6010000  56.3680000 -11.3920000 -10.2510000
  55.8880000 -10.7830000 -11.0200000  56.0670000 -12.4260000 -10.4330000
  55.8620000 -10.9620000  -8.8580000  56.3040000 -11.6090000  -8.0980000
  56.2000000  -9.9440000  -8.6520000  54.3260000 -10.9970000  -8.7230000
  54.0470000 -10.6050000  -7.7430000  53.9090000 -10.3190000  -9.4710000
  53.7510000 -12.3840000  -8.9470000  54.0950000 -12.8800000  -9.8520000
  52.8550000 -13.0010000  -8.1830000  52.5060000 -13.9880000  -8.4760000
  52.2740000 -12.4840000  -6.8820000  52.9880000 -11.8430000  -6.3620000
  51.3800000 -11.8950000  -7.0950000  51.8740000 -13.6590000  -5.9680000
  51.2040000 -14.3210000  -6.5210000  52.7620000 -14.2450000  -5.7200000
  51.1580000 -13.2240000  -4.6730000  50.2340000 -12.7060000  -4.9380000
  50.8690000 -14.1190000  -4.1180000  51.9850000 -12.3120000  -3.7440000
  52.1920000 -11.3690000  -4.2550000  51.3780000 -12.0740000  -2.8680000
  53.3050000 -12.9590000  -3.2780000  53.0900000 -13.9480000  -2.8700000
  53.9680000 -13.0980000  -4.1340000  54.0440000 -12.1380000  -2.2040000
  53.4030000 -12.0380000  -1.3250000  54.9310000 -12.6930000  -1.8920000
  54.4730000 -10.7400000  -2.6850000  55.0960000 -10.8360000  -3.5760000
  53.5910000 -10.1570000  -2.9600000  55.2480000  -9.9720000  -1.6050000
  55.5510000  -8.9940000  -1.9850000  56.1430000 -10.5260000  -1.3130000
  54.6270000  -9.8240000  -0.7200000 -30.6310000  -7.7950000   2.4040000
 -31.3030000  -8.4970000   2.9020000 -30.9850000  -6.7830000   2.6100000
 -29.6340000  -7.9130000   2.8320000 -30.5980000  -8.0740000   0.8920000
 -31.5990000  -7.9560000   0.4720000 -30.3070000  -9.1140000   0.7300000
 -29.6030000  -7.1660000   0.1460000 -29.5320000  -7.4960000  -0.8930000
 -28.6120000  -7.3000000   0.5840000 -29.9500000  -5.6650000   0.1930000
 -29.1430000  -5.1020000  -0.2830000 -29.9760000  -5.3310000   1.2320000
 -31.2790000  -5.2850000  -0.4860000 -31.3840000  -4.1990000  -0.4410000
 -32.1100000  -5.7030000   0.0860000 -31.4100000  -5.7300000  -1.9560000
 -32.3430000  -5.3240000  -2.3510000 -31.4840000  -6.8180000  -2.0130000
 -30.2340000  -5.2400000  -2.8200000 -29.3400000  -5.8240000  -2.5950000
 -30.0140000  -4.2050000  -2.5500000 -30.5030000  -5.2930000  -4.3320000
 -29.7150000  -4.7240000  -4.8290000 -31.4510000  -4.7960000  -4.5500000
 -30.5260000  -6.7250000  -4.8970000 -31.2760000  -7.3120000  -4.3630000
 -29.5550000  -7.1940000  -4.7200000 -30.8460000  -6.7840000  -6.4020000
 -31.8840000  -6.4810000  -6.5550000 -30.7650000  -7.8220000  -6.7330000
 -29.9330000  -5.9010000  -7.2740000 -28.8900000  -6.1620000  -7.0850000
 -30.0640000  -4.8500000  -7.0070000 -30.2410000  -6.0660000  -8.7720000
 -31.2700000  -5.7580000  -8.9670000 -30.1530000  -7.1210000  -9.0390000
 -29.2930000  -5.2410000  -9.6560000 -28.2620000  -5.4830000  -9.3920000
 -29.4410000  -4.1770000  -9.4580000 -29.5240000  -5.5260000 -11.1510000
 -30.5410000  -5.2300000 -11.4170000 -29.4410000  -6.6010000 -11.3290000
 -28.5190000  -4.7810000 -12.0530000 -27.4970000  -5.0750000 -11.8080000
 -28.6030000  -3.7080000 -11.8700000 -28.7530000  -5.0330000 -13.5250000
 -29.4270000  -5.9460000 -13.9710000 -28.1360000  -4.1000000 -14.2800000
 -28.3270000  -4.1110000 -15.7250000 -28.3480000  -3.0700000 -16.0580000
 -29.2850000  -4.5680000 -15.9870000 -27.1640000  -4.8070000 -16.4720000
 -26.2670000  -4.1900000 -16.3800000 -27.5130000  -4.9140000 -17.9740000
 -27.5750000  -3.9210000 -18.4250000 -28.4870000  -5.4000000 -18.0660000
 -26.5220000  -5.7050000 -18.6870000 -26.9590000  -6.6710000 -19.9030000
 -27.8010000  -7.8090000 -19.1450000 -27.1320000  -8.7910000 -18.3360000
 -26.2940000  -8.3140000 -17.8230000 -26.7390000  -9.5870000 -18.9740000
 -28.1180000  -9.3440000 -17.2770000 -28.4420000  -8.5300000 -16.6270000
 -27.5910000 -10.0800000 -16.6680000 -29.3730000 -10.0270000 -17.7680000
 -29.0850000 -10.9630000 -18.8900000 -28.7170000 -10.3860000 -19.7400000
 -30.0110000 -11.4800000 -19.1470000 -28.3390000 -11.6860000 -18.5570000
 -29.9820000 -10.8160000 -16.6560000 -30.2520000 -10.1370000 -15.8460000
 -29.2550000 -11.5550000 -16.3170000 -30.8670000 -11.3200000 -17.0470000
 -30.3840000  -9.0310000 -18.2240000 -30.6280000  -8.3710000 -17.3910000
 -31.2650000  -9.5780000 -18.5630000 -29.9520000  -8.4580000 -19.0460000
 -27.8820000  -5.9260000 -20.8040000 -25.7350000  -7.2880000 -20.4860000
 -26.9480000  -6.1500000 -15.9450000 -25.8090000  -6.4050000 -15.2710000
 -24.9780000  -5.5640000 -14.9730000 -25.6810000  -7.8760000 -14.9360000
 -26.6720000  -8.2910000 -14.7420000 -25.2900000  -8.3860000 -15.8180000
 -24.7400000  -8.1570000 -13.7440000 -24.5530000  -9.2310000 -13.6950000
 -23.7760000  -7.6790000 -13.9290000 -25.2650000  -7.6900000 -12.3740000
 -24.4820000  -7.8810000 -11.6380000 -25.4320000  -6.6110000 -12.3890000
 -26.5640000  -8.4050000 -11.9480000 -27.3700000  -8.1190000 -12.6270000
 -26.4350000  -9.4860000 -12.0330000 -26.9970000  -8.0590000 -10.5130000
 -27.0350000  -6.9720000 -10.4110000 -28.0070000  -8.4410000 -10.3510000
 -26.0590000  -8.6310000  -9.4310000 -26.0310000  -9.7200000  -9.5100000
 -25.0430000  -8.2680000  -9.6010000 -26.4730000  -8.2340000  -8.0040000
 -25.6920000  -8.5530000  -7.3110000 -26.5230000  -7.1450000  -7.9380000
 -27.8150000  -8.8230000  -7.6180000 -28.6740000  -8.3560000  -8.0920000
 -28.0160000  -9.7920000  -6.7310000 -29.0330000 -10.1060000  -6.5140000
 -26.9400000 -10.5790000  -6.0090000 -27.2430000 -11.6280000  -5.9710000
 -25.9910000 -10.5500000  -6.5490000 -26.7330000 -10.0770000  -4.5690000
 -27.7010000 -10.0370000  -4.0650000 -26.1140000 -10.7990000  -4.0340000
 -26.0680000  -8.6910000  -4.4820000 -25.0560000  -8.7530000  -4.8890000
 -26.6250000  -7.9760000  -5.0910000 -26.0110000  -8.1610000  -3.0390000
 -27.0300000  -8.0220000  -2.6710000 -25.5240000  -8.8960000  -2.3950000
 -25.2380000  -6.8330000  -2.9640000 -24.2010000  -7.0200000  -3.2510000
 -25.6490000  -6.1350000  -3.6960000 -25.2590000  -6.1890000  -1.5650000
 -25.0360000  -6.9510000  -0.8150000 -24.4630000  -5.4440000  -1.5020000
 -26.5870000  -5.4980000  -1.2150000 -27.4080000  -6.2080000  -1.3350000
 -26.5620000  -5.2060000  -0.1630000 -26.8650000  -4.2400000  -2.0580000
 -27.7720000  -3.7450000  -1.7030000 -27.0060000  -4.4940000  -3.1110000
 -26.0380000  -3.5320000  -1.9750000  -4.0030000 -30.8890000  -0.4520000
  -4.3930000 -31.9070000  -0.4000000  -4.6400000 -30.2480000   0.1620000
  -2.9950000 -30.8870000  -0.0320000  -3.9790000 -30.4050000  -1.9130000
  -4.9890000 -30.4520000  -2.3230000  -3.3700000 -31.0970000  -2.4980000
  -3.4100000 -28.9810000  -2.0880000  -3.3970000 -28.7380000  -3.1520000
  -2.3700000 -28.9750000  -1.7550000  -4.1730000 -27.8760000  -1.3250000
  -3.7280000 -26.9090000  -1.5680000  -4.0300000 -28.0200000  -0.2520000
  -5.6890000 -27.8250000  -1.6040000  -6.1230000 -27.0090000  -1.0220000
  -6.1500000 -28.7460000  -1.2410000  -6.0710000 -27.6430000  -3.0850000
  -7.1560000 -27.7320000  -3.1720000  -5.6390000 -28.4540000  -3.6760000
  -5.6460000 -26.2830000  -3.6700000  -4.5610000 -26.1720000  -3.6240000
  -6.0810000 -25.4890000  -3.0590000  -6.1200000 -26.1000000  -5.1240000
  -6.0060000 -25.0490000  -5.3970000  -7.1850000 -26.3350000  -5.1830000
  -5.3420000 -26.9600000  -6.1410000  -5.3840000 -28.0140000  -5.8580000
  -4.2930000 -26.6570000  -6.1300000  -5.9090000 -26.8000000  -7.5630000
  -6.0550000 -25.7370000  -7.7650000  -6.8920000 -27.2730000  -7.6120000
  -5.0060000 -27.3980000  -8.6560000  -4.9150000 -28.4760000  -8.5080000
  -4.0040000 -26.9730000  -8.5690000  -5.5550000 -27.1060000 -10.0660000
  -5.6320000 -26.0250000 -10.1990000  -6.5640000 -27.5130000 -10.1580000
  -4.6650000 -27.7030000 -11.1740000  -4.6840000 -28.7910000 -11.0880000
  -3.6300000 -27.3860000 -11.0250000  -5.1160000 -27.3090000 -12.5940000
  -6.1840000 -27.5110000 -12.7000000  -4.5920000 -27.9380000 -13.3160000
  -4.8350000 -25.8330000 -12.9320000  -3.7650000 -25.6290000 -12.8580000
  -5.3480000 -25.1820000 -12.2210000  -5.3140000 -25.4920000 -14.3240000
  -6.4500000 -25.1110000 -14.5620000  -4.3640000 -25.6660000 -15.2680000
  -4.7030000 -25.2870000 -16.6350000  -5.1080000 -24.2720000 -16.6280000
  -5.4770000 -25.9630000 -17.0070000  -3.4880000 -25.3100000 -17.6070000
  -3.8870000 -25.0630000 -18.5950000  -2.8010000 -26.7030000 -17.7000000
  -2.2670000 -26.7430000 -18.6530000  -3.5490000 -27.4990000 -17.7030000
  -1.8480000 -26.9420000 -16.6250000  -0.4380000 -27.6820000 -16.9110000
   0.4140000 -26.5510000 -17.6770000   1.8380000 -26.6950000 -17.8250000
   2.1110000 -27.7530000 -17.8040000   2.3310000 -26.1940000 -16.9880000
   2.2780000 -26.0660000 -19.1650000   3.3680000 -26.0990000 -19.2120000
   1.9610000 -25.0230000 -19.2000000   1.8030000 -26.7060000 -20.4490000
   0.3340000 -26.5410000 -20.6500000  -0.1760000 -27.1040000 -19.8670000
   0.0670000 -26.9310000 -21.6330000   0.0820000 -25.4820000 -20.5710000
   2.5020000 -26.0460000 -21.5910000   3.5770000 -26.1720000 -21.4530000
   2.2360000 -24.9880000 -21.6000000   2.1830000 -26.5250000 -22.5180000
   2.1260000 -28.1610000 -20.4890000   3.1970000 -28.2770000 -20.3180000
   1.8480000 -28.5570000 -21.4670000   1.5590000 -28.6590000 -19.7020000
   0.2190000 -27.9760000 -15.6050000  -0.6690000 -28.8020000 -17.8670000
  -2.5360000 -24.2760000 -17.2180000  -1.6630000 -23.8130000 -18.1300000
  -1.6190000 -24.1830000 -19.2910000  -0.7790000 -22.7210000 -17.5780000
  -0.3840000 -22.1260000 -18.4040000  -1.3890000 -22.0620000 -16.9570000
   0.3830000 -23.2950000 -16.7430000  -0.0250000 -23.9500000 -15.9710000
   1.0270000 -23.8990000 -17.3860000   1.2260000 -22.1810000 -16.0890000
   1.6270000 -21.5340000 -16.8710000   0.5810000 -21.5590000 -15.4650000
   2.3950000 -22.6980000 -15.2280000   3.1160000 -23.1980000 -15.8770000
   2.9070000 -21.8380000 -14.7910000   1.9960000 -23.6650000 -14.0930000
   1.6380000 -24.6020000 -14.5260000   2.8990000 -23.9060000 -13.5270000
   0.9220000 -23.1100000 -13.1310000   1.2480000 -22.1470000 -12.7310000
   0.0010000 -22.9330000 -13.6900000   0.5900000 -24.0610000 -11.9620000
  -0.2870000 -23.6800000 -11.4360000   0.3270000 -25.0360000 -12.3770000
   1.7620000 -24.2150000 -11.0110000   2.7420000 -24.2170000 -11.4820000
   1.6900000 -24.2670000  -9.6850000   2.6120000 -24.3310000  -9.1130000
   0.4260000 -24.3280000  -8.8530000   0.1990000 -23.3350000  -8.4610000
  -0.4280000 -24.6610000  -9.4470000   0.6340000 -25.2870000  -7.6680000
   0.8400000 -26.2880000  -8.0510000   1.5170000 -24.9600000  -7.1140000
  -0.5740000 -25.3460000  -6.7150000  -0.7520000 -24.3540000  -6.2930000
  -1.4670000 -25.6140000  -7.2830000  -0.3960000 -26.3710000  -5.5730000
  -1.2600000 -26.3090000  -4.9080000  -0.4030000 -27.3740000  -6.0050000
   0.8940000 -26.2080000  -4.7380000   0.9120000 -26.9890000  -3.9750000
   1.7670000 -26.3680000  -5.3740000   0.9970000 -24.8300000  -4.0580000
   0.8940000 -24.0490000  -4.8150000   0.1620000 -24.7190000  -3.3630000
   2.3180000 -24.5830000  -3.3060000   3.1530000 -24.6170000  -4.0080000
   2.2980000 -23.5730000  -2.8890000   2.5700000 -25.5760000  -2.1620000
   3.4250000 -25.2430000  -1.5690000   2.7880000 -26.5710000  -2.5550000
   1.7010000 -25.6370000  -1.5050000  -6.6610000  21.8120000  -3.0590000
  -7.5390000  21.4060000  -2.5530000  -6.3930000  21.1350000  -3.8730000
  -6.9330000  22.7810000  -3.4830000  -5.4980000  21.9470000  -2.0610000
  -5.3500000  20.9710000  -1.5960000  -5.7690000  22.6390000  -1.2600000
  -4.1570000  22.3790000  -2.6930000  -4.0490000  21.9290000  -3.6820000
  -3.3610000  21.9600000  -2.0750000  -3.9010000  23.9000000  -2.7660000
  -2.8800000  24.0510000  -3.1240000  -3.9370000  24.3100000  -1.7540000
  -4.8460000  24.7270000  -3.6590000  -4.4890000  25.7580000  -3.6550000
  -5.8470000  24.7380000  -3.2210000  -4.9340000  24.2270000  -5.1140000
  -5.4630000  23.2720000  -5.1280000  -3.9320000  24.0350000  -5.5040000
  -5.6830000  25.2120000  -6.0340000  -6.5990000  25.5330000  -5.5330000
  -5.9950000  24.6860000  -6.9390000  -4.8650000  26.4590000  -6.4370000
  -4.5760000  27.0090000  -5.5390000  -5.5080000  27.1220000  -7.0180000
  -3.5980000  26.1520000  -7.2650000  -2.9000000  25.5590000  -6.6710000
  -3.0890000  27.0920000  -7.4900000  -3.9020000  25.4160000  -8.5850000
  -4.6430000  25.9870000  -9.1480000  -4.3400000  24.4410000  -8.3580000
  -2.6470000  25.1970000  -9.4530000  -1.8600000  24.7670000  -8.8300000
  -2.2790000  26.1570000  -9.8230000  -2.9030000  24.2410000 -10.6350000
  -3.3170000  23.3110000 -10.2390000  -1.9470000  23.9910000 -11.0990000
  -3.8500000  24.8040000 -11.7150000  -3.3110000  25.5440000 -12.3110000
  -4.6870000  25.3240000 -11.2430000  -4.4380000  23.7210000 -12.6420000
  -5.0450000  24.2130000 -13.4060000  -5.1130000  23.0930000 -12.0570000
  -3.3930000  22.8260000 -13.3390000  -2.7740000  22.3110000 -12.6020000
  -2.7340000  23.4440000 -13.9520000  -4.0630000  21.7840000 -14.2060000
  -4.8180000  20.9310000 -13.7680000  -3.6970000  21.8760000 -15.5020000
  -4.4050000  21.0810000 -16.5030000  -4.6910000  20.1110000 -16.0900000
  -3.7140000  20.8930000 -17.3290000  -5.6600000  21.8040000 -17.0830000
  -6.1770000  21.0750000 -17.7120000  -5.2900000  23.0310000 -17.9740000
  -6.1920000  23.4310000 -18.4430000  -4.6300000  22.6850000 -18.7740000
  -4.5940000  24.0870000 -17.2500000  -5.2720000  25.5260000 -16.9150000
  -4.9550000  26.3900000 -18.2380000  -5.8180000  26.3330000 -19.3880000
  -6.8150000  26.6800000 -19.1020000  -5.8960000  25.3030000 -19.7450000
  -5.2570000  27.2550000 -20.4960000  -5.2130000  28.2800000 -20.1220000
  -5.9450000  27.2330000 -21.3420000  -3.8890000  26.9520000 -21.0610000
  -3.7480000  25.5080000 -21.4190000  -3.8100000  24.9180000 -20.5030000
  -2.7770000  25.3600000 -21.8940000  -4.5520000  25.2370000 -22.1060000
  -3.6960000  27.7610000 -22.3000000  -3.7890000  28.8170000 -22.0420000
  -4.4610000  27.4780000 -23.0260000  -2.7020000  27.5550000 -22.7000000
  -2.8070000  27.3240000 -20.1030000  -2.9110000  28.3830000 -19.8590000
  -1.8400000  27.1300000 -20.5700000  -2.9230000  26.7190000 -19.2020000
  -6.7490000  25.3790000 -16.7980000  -4.5150000  26.1480000 -15.7920000
  -6.5540000  22.1840000 -15.9970000  -7.8320000  22.5110000 -16.2860000
  -8.3210000  22.4220000 -17.4020000  -8.6540000  22.9100000 -15.0760000
  -9.4390000  23.5920000 -15.4090000  -9.1370000  22.0150000 -14.6780000
  -7.8380000  23.5890000 -13.9550000  -7.0950000  22.8900000 -13.5640000
  -7.3040000  24.4530000 -14.3560000  -8.7460000  24.0490000 -12.8050000
  -9.4830000  24.7540000 -13.1960000  -9.2940000  23.1870000 -12.4190000
  -7.9760000  24.7160000 -11.6490000  -7.2500000  24.0140000 -11.2320000
  -7.4290000  25.5840000 -12.0210000  -8.9620000  25.1520000 -10.5540000
  -9.6940000  25.8280000 -11.0020000  -9.5000000  24.2710000 -10.2000000
  -8.3220000  25.8560000  -9.3460000  -7.6100000  25.1850000  -8.8610000
  -7.7750000  26.7390000  -9.6840000  -9.4150000  26.2740000  -8.3440000
 -10.1100000  26.9410000  -8.8580000  -9.9800000  25.3920000  -8.0360000
  -8.8380000  27.0000000  -7.1480000  -8.1140000  27.7770000  -7.3800000
  -9.1590000  26.7630000  -5.8810000  -8.6980000  27.3570000  -5.0950000
 -10.1490000  25.7240000  -5.4030000 -11.1320000  25.9380000  -5.8270000
  -9.8460000  24.7320000  -5.7440000 -10.2730000  25.7060000  -3.8680000
 -10.4540000  26.7210000  -3.5070000 -11.1490000  25.1110000  -3.6030000
  -9.0470000  25.1370000  -3.1290000  -8.8750000  24.1110000  -3.4590000
  -8.1550000  25.7150000  -3.3830000  -9.2560000  25.1640000  -1.6020000
  -9.3370000  26.2000000  -1.2680000 -10.1970000  24.6700000  -1.3540000
  -8.1130000  24.4720000  -0.8400000  -8.0360000  23.4350000  -1.1740000
  -7.1680000  24.9660000  -1.0750000  -8.3400000  24.4870000   0.6830000
  -8.5100000  25.5130000   1.0160000  -9.2390000  23.9130000   0.9170000
  -7.1420000  23.8980000   1.4500000  -6.9500000  22.8810000   1.1010000
  -6.2510000  24.4920000   1.2380000  -7.3780000  23.8700000   2.9690000
  -6.4960000  23.4770000   3.4800000  -8.2300000  23.2320000   3.2130000
  -7.5760000  24.8750000   3.3470000  53.1340000 -16.9670000  -1.3290000
  53.9050000 -16.1980000  -1.4160000  52.5420000 -16.7610000  -0.4350000
  52.4840000 -16.8950000  -2.2040000  53.7820000 -18.3590000  -1.2380000
  54.4920000 -18.3550000  -0.4080000  54.3540000 -18.5500000  -2.1480000
  52.7760000 -19.5010000  -1.0000000  52.2920000 -19.3410000  -0.0340000
  53.3220000 -20.4440000  -0.9250000  51.6890000 -19.6370000  -2.0840000
  51.1230000 -18.7050000  -2.1530000  50.9840000 -20.4100000  -1.7720000
  52.2500000 -20.0210000  -3.4670000  52.7530000 -20.9850000  -3.3770000
  53.0000000 -19.2950000  -3.7890000  51.1500000 -20.1450000  -4.5390000
  50.3290000 -20.7320000  -4.1230000  51.5490000 -20.7170000  -5.3800000
  50.5960000 -18.7940000  -5.0460000  50.3340000 -18.1780000  -4.1840000
  49.6650000 -18.9690000  -5.5900000  51.5680000 -17.9980000  -5.9470000
  52.6020000 -18.2100000  -5.6660000  51.4090000 -16.9340000  -5.7610000
  51.3900000 -18.2360000  -7.4640000  52.1320000 -17.6400000  -7.9980000
  50.4070000 -17.8630000  -7.7610000  51.5120000 -19.7090000  -7.8970000
  50.7370000 -20.2840000  -7.3850000  52.4770000 -20.1140000  -7.5840000
  51.3220000 -19.9270000  -9.4090000  50.4810000 -19.3250000  -9.7590000
  51.0570000 -20.9760000  -9.5620000  52.5740000 -19.6030000 -10.2490000
  53.3860000 -20.2670000  -9.9470000  52.8970000 -18.5810000 -10.0380000
  52.3470000 -19.7440000 -11.7690000  53.2880000 -19.5410000 -12.2830000
  51.6340000 -18.9810000 -12.0910000  51.8230000 -21.1290000 -12.1990000
  50.8480000 -21.2950000 -11.7360000  52.4970000 -21.9070000 -11.8340000
  51.6790000 -21.2550000 -13.7310000  52.6650000 -21.2980000 -14.1980000
  51.1740000 -20.3680000 -14.1210000  50.8730000 -22.4650000 -14.1570000
  50.4100000 -23.2900000 -13.3840000  50.7230000 -22.5260000 -15.4980000
  49.5970000 -23.2910000 -16.0370000  49.3850000 -24.1620000 -15.4110000
  49.8760000 -23.6610000 -17.0270000  48.3110000 -22.4200000 -16.1820000
  47.4690000 -23.1140000 -16.2510000  48.3250000 -21.5420000 -17.4650000
  47.3770000 -21.0050000 -17.5570000  48.4130000 -22.2130000 -18.3230000
  49.4430000 -20.6040000 -17.5090000  49.2790000 -19.0180000 -17.1820000
  49.1730000 -18.3450000 -18.6450000  48.0200000 -18.5210000 -19.4930000
  47.8870000 -17.6120000 -20.0850000  47.1230000 -18.6610000 -18.8850000
  48.2230000 -19.7320000 -20.4390000  47.3450000 -19.8140000 -21.0820000
  48.2960000 -20.6490000 -19.8520000  49.4170000 -19.7370000 -21.3670000
  50.6900000 -19.9750000 -20.6240000  50.8540000 -19.1360000 -19.9460000
  51.5090000 -20.0490000 -21.3410000  50.5940000 -20.9000000 -20.0530000
  49.2530000 -20.8490000 -22.3490000  48.3420000 -20.6770000 -22.9250000
  49.1850000 -21.7900000 -21.8030000  50.1200000 -20.8590000 -23.0110000
  49.5270000 -18.4550000 -22.1260000  48.5950000 -18.2880000 -22.6690000
  50.3640000 -18.5350000 -22.8220000  49.7060000 -17.6490000 -21.4140000
  48.0020000 -18.7540000 -16.4640000  50.5520000 -18.5330000 -16.5770000
  48.1440000 -21.5930000 -14.9960000  46.9130000 -21.1630000 -14.6510000
  45.8870000 -21.4690000 -15.2400000  46.9210000 -20.2930000 -13.4110000
  47.3200000 -19.3110000 -13.6760000  45.8940000 -20.1610000 -13.0640000
  47.7870000 -20.9080000 -12.2950000  47.4630000 -21.9330000 -12.1020000
  48.8210000 -20.9580000 -12.6450000  47.7810000 -20.1130000 -10.9790000
  48.5930000 -20.5040000 -10.3620000  47.9990000 -19.0620000 -11.1760000
  46.4520000 -20.2430000 -10.2120000  45.6520000 -19.7800000 -10.7930000
  46.2010000 -21.3020000 -10.1170000  46.4770000 -19.6080000  -8.8070000
  46.5520000 -18.5230000  -8.9040000  45.5190000 -19.8180000  -8.3260000
  47.6110000 -20.0960000  -7.8820000  48.5670000 -19.7080000  -8.2410000
  47.4520000 -19.6700000  -6.8900000  47.6940000 -21.6310000  -7.7650000
  46.7080000 -22.0220000  -7.5040000  47.9570000 -22.0640000  -8.7320000
  48.7210000 -22.0640000  -6.7390000  49.7270000 -22.2160000  -7.1210000
  48.4590000 -22.3200000  -5.4620000  49.2550000 -22.6570000  -4.8030000
  47.1110000 -22.1110000  -4.8070000  46.4580000 -21.5090000  -5.4410000
  46.6360000 -23.0840000  -4.6700000  47.2300000 -21.4250000  -3.4330000
  47.5810000 -22.1500000  -2.6950000  47.9720000 -20.6260000  -3.4890000
  45.8910000 -20.8120000  -2.9770000  46.0130000 -20.3860000  -1.9790000
  45.6520000 -19.9870000  -3.6510000  44.7130000 -21.8070000  -2.9710000
  44.7360000 -22.4110000  -3.8810000  44.8050000 -22.4870000  -2.1220000
  43.3520000 -21.0960000  -2.9400000  43.2560000 -20.5220000  -2.0160000
  43.3040000 -20.3930000  -3.7750000  42.1860000 -22.0950000  -3.0620000
  42.4040000 -22.8160000  -3.8530000  42.0910000 -22.6560000  -2.1300000
  40.8480000 -21.4190000  -3.4000000  40.8940000 -21.0170000  -4.4140000
  40.0560000 -22.1710000  -3.3850000  40.4850000 -20.2820000  -2.4360000
  39.4740000 -19.9300000  -2.6510000  41.1710000 -19.4390000  -2.5480000
  40.5180000 -20.6270000  -1.4010000   1.2440000 -43.5110000  -0.8180000
   0.4770000 -43.7760000  -0.0870000   2.0310000 -42.9550000  -0.3030000
   1.6740000 -44.4330000  -1.2140000   0.6330000 -42.6580000  -1.9430000
   0.1930000 -41.7620000  -1.5000000  -0.1850000 -43.2080000  -2.4130000
   1.6580000 -42.2190000  -3.0070000   2.5150000 -41.7760000  -2.4950000
   1.2140000 -41.4330000  -3.6230000   2.1560000 -43.3490000  -3.9300000
   2.4880000 -44.1960000  -3.3260000   3.0250000 -42.9890000  -4.4850000
   1.0980000 -43.8110000  -4.9490000   0.9340000 -43.0190000  -5.6820000
   0.1430000 -43.9710000  -4.4430000   1.4850000 -45.1140000  -5.6720000
   0.6360000 -45.4400000  -6.2770000   1.6750000 -45.8990000  -4.9380000
   2.7140000 -44.9650000  -6.5820000   3.6050000 -44.7810000  -5.9780000
   2.5640000 -44.0970000  -7.2260000   2.9250000 -46.2280000  -7.4400000
   2.0130000 -46.4320000  -8.0070000   3.0840000 -47.0850000  -6.7820000
   4.1140000 -46.1230000  -8.4140000   4.1500000 -47.0290000  -9.0220000
   5.0420000 -46.0940000  -7.8390000   4.0740000 -44.8880000  -9.3410000
   4.9070000 -44.9500000 -10.0450000   4.2480000 -43.9900000  -8.7450000
   2.7610000 -44.7060000 -10.1280000   2.8510000 -43.8040000 -10.7380000
   1.9360000 -44.5310000  -9.4340000   2.4040000 -45.8910000 -11.0470000
   2.2830000 -46.8020000 -10.4580000   3.2210000 -46.0540000 -11.7530000
   1.1030000 -45.6070000 -11.8180000   1.2150000 -44.6650000 -12.3580000
   0.2860000 -45.4780000 -11.1040000   0.7140000 -46.6960000 -12.8310000
  -0.2410000 -46.4140000 -13.2800000   0.5640000 -47.6470000 -12.3150000
   1.7630000 -46.8770000 -13.9430000   2.5900000 -47.4950000 -13.5880000
   2.1730000 -45.9050000 -14.2270000   1.1430000 -47.5130000 -15.1600000
   0.8930000 -48.7030000 -15.2510000   0.8710000 -46.5990000 -16.1090000
   0.1870000 -47.0150000 -17.3250000  -0.4590000 -47.8690000 -17.1100000
   0.9260000 -47.3170000 -18.0720000  -0.7150000 -45.8810000 -17.8820000
  -1.1900000 -46.2770000 -18.7830000   0.0910000 -44.6090000 -18.2790000
  -0.4310000 -44.1010000 -19.0940000   1.0720000 -44.9180000 -18.6520000
   0.2720000 -43.6580000 -17.1910000   1.1750000 -42.3260000 -17.3850000
   0.2050000 -41.3320000 -18.2090000  -0.9420000 -40.7130000 -17.5930000
  -0.9080000 -39.6360000 -17.7790000  -0.9170000 -40.8700000 -16.5110000
  -2.2360000 -41.3300000 -18.1770000  -3.0920000 -40.9350000 -17.6270000
  -2.2050000 -42.4110000 -18.0350000  -2.5550000 -41.1070000 -19.6380000
  -1.5820000 -41.7960000 -20.5360000  -0.5830000 -41.4100000 -20.3280000
  -1.8570000 -41.5960000 -21.5730000  -1.6260000 -42.8670000 -20.3310000
  -3.9040000 -41.6750000 -19.9260000  -4.6360000 -41.1580000 -19.3030000
  -3.8900000 -42.7410000 -19.6920000  -4.1280000 -41.5170000 -20.9810000
  -2.5860000 -39.6520000 -19.9710000  -3.3370000 -39.1710000 -19.3420000
  -2.8550000 -39.5420000 -21.0220000  -1.5970000 -39.2280000 -19.7900000
   1.4530000 -41.7220000 -16.0530000   2.3310000 -42.6500000 -18.2710000
  -1.7470000 -45.5980000 -16.8940000  -2.8860000 -45.0110000 -17.3000000
  -3.0660000 -44.5550000 -18.4180000  -3.9370000 -44.9520000 -16.2130000
  -4.7790000 -44.3490000 -16.5610000  -4.3070000 -45.9650000 -16.0410000
  -3.4080000 -44.3810000 -14.8790000  -4.2130000 -44.4170000 -14.1420000
  -2.6090000 -45.0250000 -14.5060000  -2.9020000 -42.9300000 -14.9950000
  -2.0750000 -42.8840000 -15.7060000  -3.7060000 -42.3070000 -15.3940000
  -2.4350000 -42.3470000 -13.6470000  -2.2640000 -41.2760000 -13.7690000
  -3.2320000 -42.4660000 -12.9100000  -1.1380000 -43.0020000 -13.1340000
  -1.2850000 -44.0770000 -13.0060000  -0.3580000 -42.8720000 -13.8880000
  -0.6370000 -42.4070000 -11.8050000   0.3770000 -42.7660000 -11.6170000
  -0.5750000 -41.3210000 -11.8950000  -1.5210000 -42.7740000 -10.6000000
  -2.5090000 -42.3330000 -10.7460000  -1.6350000 -43.8590000 -10.5440000
  -0.9040000 -42.2260000  -9.3340000  -0.3250000 -41.3180000  -9.4780000
  -0.9400000 -42.7820000  -8.1270000  -0.4060000 -42.3030000  -7.3100000
  -1.7300000 -44.0070000  -7.7230000  -2.4110000 -44.3160000  -8.5180000
  -1.0390000 -44.8310000  -7.5350000  -2.5360000 -43.7270000  -6.4390000
  -1.8720000 -43.3490000  -5.6590000  -3.2530000 -42.9310000  -6.6490000
  -3.3070000 -44.9590000  -5.9220000  -4.2000000 -44.6220000  -5.3910000
  -3.6570000 -45.5480000  -6.7730000  -2.4850000 -45.8600000  -4.9810000
  -2.9660000 -46.8380000  -4.9250000  -1.4860000 -46.0120000  -5.3950000
  -2.3920000 -45.2730000  -3.5580000  -1.8800000 -44.3080000  -3.5830000
  -3.4040000 -45.0810000  -3.1960000  -1.6940000 -46.1960000  -2.5420000
  -1.8140000 -45.7590000  -1.5490000  -2.1980000 -47.1650000  -2.5390000
  -0.1970000 -46.4340000  -2.7930000  -0.0570000 -46.9620000  -3.7380000
   0.3150000 -45.4720000  -2.8640000   0.4470000 -47.2410000  -1.6560000
   1.5160000 -47.3620000  -1.8450000  -0.0120000 -48.2280000  -1.5770000
   0.3230000 -46.7220000  -0.7030000  18.8770000  40.9390000  -0.3740000
  17.9320000  40.5570000  -0.7660000  18.7050000  41.9440000   0.0190000
  19.1940000  40.2930000   0.4470000  19.9370000  40.9750000  -1.4870000
  19.5440000  41.5530000  -2.3260000  20.1130000  39.9610000  -1.8520000
  21.2720000  41.6000000  -1.0390000  21.0860000  42.5970000  -0.6340000
  21.9030000  41.7240000  -1.9210000  22.0130000  40.7500000   0.0150000
  22.1160000  39.7240000  -0.3430000  21.4070000  40.7040000   0.9230000
  23.4030000  41.2970000   0.3960000  23.8240000  40.6440000   1.1640000
  23.2750000  42.2780000   0.8580000  24.4320000  41.4290000  -0.7510000
  25.3450000  41.8340000  -0.3100000  24.0900000  42.1750000  -1.4710000
  24.8130000  40.1090000  -1.4670000  24.8130000  39.2980000  -0.7350000
  25.8430000  40.2010000  -1.8200000  23.9330000  39.7050000  -2.6730000
  22.8840000  39.6730000  -2.3710000  24.1980000  38.6890000  -2.9750000
  24.0670000  40.6350000  -3.8960000  24.2150000  41.6600000  -3.5490000
  23.1370000  40.6230000  -4.4680000  25.2400000  40.2680000  -4.8220000
  26.1050000  39.9980000  -4.2130000  25.5250000  41.1630000  -5.3800000
  24.9390000  39.1180000  -5.8110000  24.4960000  38.2780000  -5.2710000
  25.8880000  38.7620000  -6.2190000  24.0300000  39.4860000  -7.0060000
  23.0240000  39.7200000  -6.6530000  23.9510000  38.6100000  -7.6520000
  24.5790000  40.6690000  -7.8270000  25.6570000  40.5460000  -7.9440000
  24.4170000  41.5910000  -7.2640000  23.9590000  40.8420000  -9.2260000
  24.2560000  41.8280000  -9.5890000  22.8690000  40.8360000  -9.1530000
  24.4190000  39.7670000 -10.2400000  23.9070000  38.8240000 -10.0420000
  25.4900000  39.5850000 -10.1280000  24.1740000  40.1670000 -11.6800000
  23.8690000  41.2890000 -12.0410000  24.3540000  39.1380000 -12.5350000
  24.3060000  39.4120000 -13.9700000  25.2920000  39.7470000 -14.3030000
  23.5750000  40.1960000 -14.1820000  23.8740000  38.1460000 -14.7460000
  24.5670000  37.3400000 -14.4940000  23.9120000  38.4120000 -16.2750000
  24.9520000  38.4210000 -16.6120000  23.4750000  39.3920000 -16.4850000
  23.1780000  37.3970000 -17.0170000  23.0030000  37.4590000 -18.6260000
  21.7250000  38.4190000 -18.8220000  21.8700000  39.8390000 -19.0280000
  22.1360000  40.0130000 -20.0740000  22.6670000  40.2400000 -18.3980000
  20.5280000  40.5320000 -18.7040000  19.7300000  40.0420000 -19.2630000
  20.5860000  41.5730000 -19.0250000  20.0750000  40.5860000 -17.2660000
  21.0500000  41.3430000 -16.4330000  21.9990000  40.8040000 -16.4100000
  20.6340000  41.4440000 -15.4300000  21.1740000  42.3270000 -16.8880000
  18.7760000  41.3140000 -17.2140000  18.0430000  40.7790000 -17.8200000
  18.9490000  42.3220000 -17.5930000  18.4480000  41.3650000 -16.1750000
  19.8770000  39.2310000 -16.6730000  19.1490000  38.6940000 -17.2840000
  19.5010000  39.3410000 -15.6550000  20.8310000  38.7010000 -16.6770000
  24.1990000  38.1170000 -19.2210000  22.6310000  36.0990000 -19.1050000
  22.5180000  37.8280000 -14.3190000  22.1990000  36.5420000 -14.0670000
  22.9160000  35.5870000 -14.3220000  20.8430000  36.4520000 -13.3950000
  20.8020000  37.1980000 -12.5990000  20.0840000  36.7370000 -14.1270000
  20.4940000  35.0600000 -12.8160000  19.5010000  35.1210000 -12.3660000
  20.4190000  34.3430000 -13.6370000  21.4660000  34.4960000 -11.7560000
  21.0550000  33.5560000 -11.3810000  22.4170000  34.2450000 -12.2300000
  21.7370000  35.4310000 -10.5620000  22.1920000  36.3570000 -10.9200000
  20.7950000  35.6880000 -10.0740000  22.6880000  34.7650000  -9.5470000
  22.1940000  33.9030000  -9.0950000  23.5600000  34.3850000 -10.0830000
  23.1910000  35.7140000  -8.4410000  23.9320000  35.1780000  -7.8440000
  23.7150000  36.5490000  -8.9090000  22.1040000  36.2780000  -7.5000000
  22.5730000  36.9450000  -6.7740000  21.4090000  36.8930000  -8.0770000
  21.3300000  35.2020000  -6.7660000  20.3200000  35.0320000  -7.1310000
  21.7630000  34.5190000  -5.7100000  21.1070000  33.7880000  -5.2440000
  23.1530000  34.6060000  -5.1090000  23.6710000  33.6650000  -5.3050000
  23.7440000  35.3990000  -5.5720000  23.1330000  34.8210000  -3.5860000
  22.5940000  33.9990000  -3.1110000  24.1620000  34.7820000  -3.2230000
  22.5040000  36.1660000  -3.1680000  22.8810000  36.9530000  -3.8240000
  21.4220000  36.1240000  -3.3120000  22.8250000  36.5570000  -1.7100000
  23.8990000  36.7350000  -1.6280000  22.3320000  37.5040000  -1.4810000
  22.4320000  35.5090000  -0.6510000  22.9920000  34.5900000  -0.8340000
  22.7480000  35.8670000   0.3310000  20.9280000  35.1740000  -0.6090000
  20.6300000  34.7250000  -1.5590000  20.7690000  34.4130000   0.1570000
  20.0070000  36.3760000  -0.3160000  20.0570000  37.0910000  -1.1410000
  18.9770000  36.0150000  -0.2700000  20.3310000  37.1010000   1.0020000
  19.5920000  37.8820000   1.1940000  21.3160000  37.5710000   0.9560000
  20.3170000  36.3990000   1.8380000 -26.1600000  37.6910000  -1.7160000
 -27.0180000  38.3670000  -1.7150000 -25.2670000  38.2710000  -1.9580000
 -26.0490000  37.2710000  -0.7140000 -26.3700000  36.5790000  -2.7540000
 -26.3890000  37.0310000  -3.7490000 -27.3480000  36.1240000  -2.5870000
 -25.2910000  35.4790000  -2.6910000 -25.1530000  35.1760000  -1.6510000
 -24.3370000  35.8760000  -3.0450000 -25.6760000  34.2320000  -3.5120000
 -26.6350000  33.8600000  -3.1470000 -24.9390000  33.4450000  -3.3340000
 -25.7740000  34.4990000  -5.0260000 -24.7710000  34.5990000  -5.4460000
 -26.2890000  35.4450000  -5.2030000 -26.5530000  33.4090000  -5.7830000
 -26.7130000  33.7670000  -6.8020000 -27.5360000  33.2900000  -5.3230000
 -25.8660000  32.0340000  -5.8220000 -25.6800000  31.6860000  -4.8040000
 -24.8980000  32.1390000  -6.3160000 -26.7100000  30.9740000  -6.5620000
 -27.6620000  30.8410000  -6.0430000 -26.1850000  30.0170000  -6.5210000
 -26.9770000  31.3470000  -8.0330000 -26.0260000  31.5560000  -8.5280000
 -27.5770000  32.2580000  -8.0680000 -27.7080000  30.2430000  -8.8120000
 -28.6960000  30.0800000  -8.3760000 -27.1490000  29.3100000  -8.7120000
 -27.8540000  30.5740000 -10.3110000 -28.3720000  29.7480000 -10.8030000
 -26.8610000  30.6400000 -10.7590000 -28.6130000  31.8880000 -10.5830000
 -28.0260000  32.7280000 -10.2050000 -29.5610000  31.8760000 -10.0400000
 -28.8810000  32.1100000 -12.0840000 -29.5920000  31.3640000 -12.4470000
 -27.9500000  31.9610000 -12.6350000 -29.4090000  33.5220000 -12.3970000
 -29.4740000  33.6420000 -13.4810000 -28.6810000  34.2530000 -12.0400000
 -30.7820000  33.8500000 -11.7790000 -30.7720000  33.6790000 -10.7000000
 -31.5560000  33.2170000 -12.2170000 -31.1040000  35.3030000 -12.0310000
 -30.7750000  36.1940000 -11.2610000 -31.7620000  35.4910000 -13.1970000
 -31.8300000  36.8460000 -13.7330000 -31.9130000  37.5760000 -12.9230000
 -32.7350000  36.9280000 -14.3410000 -30.5980000  37.1760000 -14.6270000
 -30.5940000  38.2570000 -14.7910000 -30.6730000  36.4630000 -16.0070000
 -30.0500000  37.0090000 -16.7190000 -31.7020000  36.4800000 -16.3750000
 -30.2090000  35.0870000 -15.9580000 -30.1470000  34.1950000 -17.3020000
 -29.0040000  34.9340000 -18.1590000 -27.6220000  34.8310000 -17.7750000
 -27.2980000  33.7880000 -17.8210000 -27.5230000  35.1830000 -16.7450000
 -26.7650000  35.7230000 -18.7020000 -25.7360000  35.7100000 -18.3400000
 -27.1300000  36.7500000 -18.6480000 -26.6910000  35.3730000 -20.1710000
 -26.3070000  33.9440000 -20.3730000 -25.3620000  33.7580000 -19.8610000
 -26.2010000  33.7610000 -21.4440000 -27.0960000  33.3120000 -19.9630000
 -27.9870000  35.6310000 -20.8660000 -28.2530000  36.6800000 -20.7290000
 -28.7480000  34.9900000 -20.4200000 -27.8690000  35.4000000 -21.9260000
 -25.6510000  36.2310000 -20.8130000 -25.9290000  37.2770000 -20.6770000
 -25.6070000  35.9880000 -21.8760000 -24.6890000  36.0290000 -20.3400000
 -29.6680000  32.8290000 -16.9540000 -31.4350000  34.3380000 -18.0380000
 -29.3890000  36.8010000 -13.9070000 -28.1870000  37.2150000 -14.3380000
 -28.0140000  37.9300000 -15.3100000 -27.0770000  36.6970000 -13.4540000
 -26.5270000  37.5510000 -13.0530000 -27.5130000  36.1690000 -12.6040000
 -26.1200000  35.7610000 -14.2210000 -26.6850000  34.9440000 -14.6740000
 -25.6520000  36.3250000 -15.0310000 -25.0150000  35.1740000 -13.3220000
 -24.2090000  34.7970000 -13.9570000 -24.5940000  35.9780000 -12.7150000
 -25.5090000  34.0180000 -12.4250000 -26.3860000  34.3360000 -11.8570000
 -25.8300000  33.1950000 -13.0660000 -24.4300000  33.4910000 -11.4550000
 -24.7740000  32.5540000 -11.0120000 -23.5270000  33.2610000 -12.0230000
 -24.0770000  34.4790000 -10.3240000 -23.1620000  34.1410000  -9.8330000
 -23.8660000  35.4640000 -10.7460000 -25.1820000  34.6100000  -9.2630000
 -26.1520000  34.7590000  -9.7420000 -25.2420000  33.6700000  -8.7100000
 -24.8760000  35.7340000  -8.2960000 -24.0090000  35.5730000  -7.6600000
 -25.6010000  36.8380000  -8.1420000 -25.3040000  37.5650000  -7.3910000
 -26.8150000  37.2190000  -8.9680000 -26.8930000  38.3060000  -9.0320000
 -26.7020000  36.8560000  -9.9920000 -28.1180000  36.6500000  -8.3740000
 -28.9300000  36.8140000  -9.0850000 -28.0010000  35.5700000  -8.2650000
 -28.5110000  37.2830000  -7.0210000 -27.6770000  37.2060000  -6.3200000
 -28.7040000  38.3470000  -7.1740000 -29.7600000  36.6360000  -6.3870000
 -30.0740000  37.2400000  -5.5330000 -30.5800000  36.6380000  -7.1080000
 -29.4910000  35.1980000  -5.9070000 -29.1560000  34.5850000  -6.7460000
 -28.6840000  35.2270000  -5.1720000 -30.7120000  34.5170000  -5.2670000
 -31.0330000  35.1060000  -4.4050000 -31.5360000  34.4940000  -5.9830000
 -30.3810000  33.0820000  -4.8130000 -30.0370000  32.5010000  -5.6710000
 -29.5640000  33.1120000  -4.0890000 -31.5820000  32.3680000  -4.1750000
 -31.2980000  31.3600000  -3.8640000 -32.4030000  32.2900000  -4.8900000
 -31.9290000  32.9130000  -3.2950000 -38.6050000  11.9920000  -4.1100000
 -38.0440000  11.4600000  -3.3390000 -38.6090000  11.3830000  -5.0160000
 -39.6340000  12.1150000  -3.7660000 -37.9670000  13.3660000  -4.3660000
 -36.9110000  13.2330000  -4.6100000 -38.0090000  13.9470000  -3.4420000
 -38.6530000  14.1640000  -5.4910000 -38.2260000  15.1680000  -5.5120000
 -39.7190000  14.2680000  -5.2750000 -38.4550000  13.5190000  -6.8750000
 -39.0500000  12.6070000  -6.9480000 -37.4050000  13.2350000  -6.9750000
 -38.8030000  14.4610000  -8.0410000 -38.4440000  14.0080000  -8.9680000
 -38.2590000  15.3990000  -7.9150000 -40.3080000  14.7560000  -8.1920000
 -40.7120000  15.1470000  -7.2570000 -40.8300000  13.8230000  -8.4170000
 -40.5440000  15.7830000  -9.3170000 -40.0190000  15.4580000 -10.2170000
 -40.1010000  16.7360000  -9.0180000 -42.0240000  16.0180000  -9.6710000
 -42.0730000  16.8390000 -10.3890000 -42.5750000  16.3330000  -8.7810000
 -42.6980000  14.7770000 -10.2870000 -42.8600000  14.0240000  -9.5130000
 -42.0320000  14.3430000 -11.0350000 -44.0380000  15.1220000 -10.9600000
 -43.8590000  15.8930000 -11.7130000 -44.7310000  15.5330000 -10.2240000
 -44.6730000  13.9000000 -11.6460000 -44.9800000  13.1720000 -10.8920000
 -43.9250000  13.4200000 -12.2800000 -45.8810000  14.2930000 -12.5120000
 -45.5840000  15.1100000 -13.1730000 -46.6850000  14.6610000 -11.8710000
 -46.3910000  13.1160000 -13.3630000 -46.6340000  12.2830000 -12.7000000
 -45.5890000  12.7740000 -14.0220000 -47.6410000  13.4580000 -14.2010000
 -48.4510000  13.7100000 -13.5130000 -47.9610000  12.5650000 -14.7420000
 -47.4760000  14.6260000 -15.2020000 -47.1300000  15.5250000 -14.6870000
 -48.4550000  14.8690000 -15.6210000 -46.5480000  14.3370000 -16.3630000
 -46.0680000  13.2430000 -16.6090000 -46.3630000  15.4320000 -17.1330000
 -45.4690000  15.3580000 -18.2850000 -45.8410000  16.0540000 -19.0400000
 -45.4830000  14.3540000 -18.7180000 -44.0230000  15.7820000 -17.9120000
 -44.0870000  16.7960000 -17.5070000 -43.0720000  15.7960000 -19.1370000
 -42.0510000  15.5860000 -18.8080000 -43.0870000  16.7880000 -19.5930000
 -43.4670000  14.8270000 -20.1480000 -42.5000000  14.4580000 -21.3900000
 -42.1050000  12.9290000 -21.1000000 -41.3850000  12.5380000 -19.9150000
 -40.6990000  13.3330000 -19.6130000 -40.7920000  11.6500000 -20.1490000
 -42.3820000  12.2160000 -18.7710000 -42.9260000  13.1200000 -18.4950000
 -41.8090000  11.8880000 -17.9020000 -43.4320000  11.1510000 -19.0040000
 -44.4860000  11.6100000 -19.9580000 -44.9010000  12.5500000 -19.5910000
 -45.2640000  10.8470000 -20.0250000 -44.0250000  11.7640000 -20.9340000
 -42.8240000   9.8890000 -19.5260000 -42.0610000   9.5460000 -18.8260000
 -42.3790000  10.1020000 -20.5000000 -43.6130000   9.1430000 -19.6330000
 -44.1080000  10.8450000 -17.7080000 -43.3830000  10.4010000 -17.0230000
 -44.9260000  10.1480000 -17.8930000 -44.5000000  11.7750000 -17.2950000
 -43.3210000  14.4890000 -22.6300000 -41.2660000  15.2880000 -21.3310000
 -43.4890000  14.9070000 -16.8790000 -42.5850000  15.4290000 -16.0230000
 -41.9810000  16.4710000 -16.2190000 -42.3870000  14.5760000 -14.7970000
 -41.8710000  15.1610000 -14.0330000 -43.3690000  14.3050000 -14.4030000
 -41.5860000  13.2990000 -15.1110000 -42.1330000  12.7220000 -15.8600000
 -40.6170000  13.5640000 -15.5390000 -41.3740000  12.4490000 -13.8430000
 -40.7400000  12.9980000 -13.1440000 -42.3370000  12.2980000 -13.3530000
 -40.7510000  11.0650000 -14.1070000 -39.7520000  11.1810000 -14.5340000
 -40.6300000  10.5650000 -13.1440000 -41.6100000  10.2010000 -15.0540000
 -42.6320000  10.5880000 -15.0630000 -41.2270000  10.3080000 -16.0700000
 -41.6710000   8.7020000 -14.6920000 -42.2380000   8.1830000 -15.4670000
 -40.6620000   8.2830000 -14.7030000 -42.3280000   8.4120000 -13.3260000
 -42.4260000   7.3290000 -13.2210000 -41.6670000   8.7520000 -12.5260000
 -43.7050000   9.0390000 -13.2280000 -44.3740000   8.7910000 -14.0470000
 -44.1240000   9.8880000 -12.2930000 -45.1270000  10.2980000 -12.3740000
 -43.3630000  10.3310000 -11.0600000 -42.5010000   9.6890000 -10.8670000
 -42.9950000  11.3490000 -11.2100000 -44.2910000  10.3250000  -9.8300000
 -45.1900000  10.9010000 -10.0600000 -44.6120000   9.3020000  -9.6250000
 -43.6550000  10.9100000  -8.5560000 -43.4170000  11.9620000  -8.7250000
 -44.4110000  10.8790000  -7.7680000 -42.3810000  10.1750000  -8.0870000
 -42.5880000   9.1070000  -7.9930000 -41.6010000  10.2900000  -8.8430000
 -41.8410000  10.7100000  -6.7450000 -40.8430000  10.3000000  -6.5730000
 -41.7390000  11.7950000  -6.8040000 -42.7430000  10.3350000  -5.5530000
 -43.7720000  10.6410000  -5.7530000 -42.7380000   9.2490000  -5.4350000
 -42.2990000  10.9810000  -4.2320000 -41.2920000  10.6390000  -3.9810000
 -42.2630000  12.0650000  -4.3550000 -43.2570000  10.6330000  -3.0820000
 -42.9660000  11.1610000  -2.1720000 -43.2400000   9.5600000  -2.8800000
 -44.2790000  10.9230000  -3.3360000  -0.0670000  44.0270000  -0.9460000
  -0.6500000  43.6550000  -0.1010000  -0.3260000  45.0750000  -1.1100000
   0.9920000  43.9630000  -0.6910000  -0.3590000  43.1940000  -2.2040000
  -1.4300000  43.2290000  -2.4110000  -0.0930000  42.1530000  -2.0120000
   0.4180000  43.7030000  -3.4330000   1.4900000  43.6420000  -3.2370000
   0.1750000  44.7550000  -3.5910000   0.0850000  42.8920000  -4.7010000
  -0.9970000  42.8730000  -4.8450000   0.4080000  41.8600000  -4.5530000
   0.7390000  43.4330000  -5.9870000   0.5410000  42.7150000  -6.7860000
   1.8220000  43.4780000  -5.8530000   0.2090000  44.8210000  -6.4070000
   0.4220000  45.5440000  -5.6160000  -0.8770000  44.7800000  -6.5090000
   0.8330000  45.3530000  -7.7150000   1.9080000  45.4730000  -7.5630000
   0.4300000  46.3470000  -7.9150000   0.6070000  44.4660000  -8.9580000
   1.0380000  43.4770000  -8.7880000   1.1560000  44.9090000  -9.7910000
  -0.8780000  44.3260000  -9.3510000  -1.2640000  45.3050000  -9.6440000
  -1.4570000  43.9960000  -8.4860000  -1.1220000  43.3190000 -10.4920000
  -2.1940000  43.2780000 -10.6960000  -0.8220000  42.3250000 -10.1530000
  -0.3790000  43.6500000 -11.8010000   0.6970000  43.6730000 -11.6160000
  -0.6770000  44.6410000 -12.1490000  -0.6750000  42.6010000 -12.8890000
  -1.7310000  42.6550000 -13.1610000  -0.4970000  41.6060000 -12.4750000
   0.1960000  42.7610000 -14.1490000   0.1140000  41.8510000 -14.7470000
   1.2410000  42.8520000 -13.8450000  -0.1860000  43.9690000 -15.0240000
  -0.2060000  44.8700000 -14.4070000  -1.1910000  43.8290000 -15.4270000
   0.8060000  44.2020000 -16.1820000   0.5390000  45.1270000 -16.6990000
   1.8140000  44.3350000 -15.7830000   0.8190000  43.0730000 -17.1830000
   1.5760000  42.1190000 -17.1160000  -0.0630000  43.2740000 -18.1820000
  -0.2090000  42.2460000 -19.2080000   0.7470000  41.7450000 -19.3830000
  -0.4890000  42.7440000 -20.1390000  -1.3030000  41.1940000 -18.8670000
  -1.0690000  40.3010000 -19.4510000  -2.7300000  41.6680000 -19.2580000
  -3.4390000  40.8420000 -19.1560000  -2.7110000  41.9620000 -20.3100000
  -3.2010000  42.7830000 -18.4490000  -3.9340000  44.0620000 -19.1160000
  -2.6980000  44.9870000 -19.5570000  -2.0230000  45.7970000 -18.5790000
  -1.8850000  45.2050000 -17.6710000  -2.6360000  46.6690000 -18.3360000
  -0.6330000  46.2120000 -19.1170000  -0.0640000  45.3090000 -19.3460000
  -0.1070000  46.7550000 -18.3310000  -0.5570000  47.0820000 -20.3490000
  -1.3900000  48.3130000 -20.2020000  -2.4360000  48.0140000 -20.1300000
  -1.2390000  48.9380000 -21.0830000  -1.0790000  48.8460000 -19.3010000
   0.8630000  47.4950000 -20.5470000   1.4800000  46.6020000 -20.6520000
   1.1910000  48.0880000 -19.6920000   0.9240000  48.0990000 -21.4530000
  -0.9880000  46.3450000 -21.5740000  -0.3660000  45.4550000 -21.6820000
  -0.8720000  47.0020000 -22.4370000  -2.0330000  46.0580000 -21.4510000
  -4.6470000  43.6300000 -20.3520000  -4.7140000  44.7730000 -18.0640000
  -1.2550000  40.8570000 -17.4510000  -1.8410000  39.7230000 -17.0330000
  -2.2720000  38.8600000 -17.7780000  -1.9170000  39.6430000 -15.5290000
  -2.2650000  38.6520000 -15.2300000  -0.9130000  39.7810000 -15.1230000
  -2.8500000  40.7300000 -14.9540000  -2.7310000  40.7490000 -13.8690000
  -2.5360000  41.7070000 -15.3290000  -4.3410000  40.5110000 -15.2810000
  -4.4490000  40.2280000 -16.3310000  -4.7190000  39.6760000 -14.6870000
  -5.2100000  41.7610000 -15.0370000  -4.9500000  42.5140000 -15.7830000
  -6.2550000  41.4960000 -15.2140000  -5.0830000  42.4050000 -13.6420000
  -4.0830000  42.8300000 -13.5280000  -5.7860000  43.2390000 -13.5870000
  -5.3570000  41.4440000 -12.4700000  -6.3210000  40.9520000 -12.6190000
  -4.5920000  40.6660000 -12.4440000  -5.3660000  42.1890000 -11.1230000
  -4.4240000  42.7280000 -11.0080000  -6.1720000  42.9250000 -11.1400000
  -5.5920000  41.2270000  -9.9750000  -6.3000000  40.4270000 -10.1790000
  -4.9740000  41.2570000  -8.7990000  -5.2070000  40.4890000  -8.0650000
  -3.9960000  42.3200000  -8.3370000  -2.9770000  41.9540000  -8.4750000
  -4.1020000  43.2300000  -8.9300000  -4.1800000  42.6830000  -6.8500000
  -3.5200000  43.5200000  -6.6160000  -5.2060000  43.0160000  -6.6770000
  -3.8580000  41.5150000  -5.9050000  -4.5940000  40.7210000  -6.0500000
  -2.8770000  41.1170000  -6.1730000  -3.8640000  41.9270000  -4.4230000
  -3.1290000  42.7170000  -4.2560000  -4.8430000  42.3460000  -4.1800000
  -3.5790000  40.7490000  -3.4710000  -3.6570000  41.1200000  -2.4470000
  -4.3550000  39.9920000  -3.5990000  -2.1890000  40.1030000  -3.6520000
  -2.0200000  39.8420000  -4.6980000  -1.4250000  40.8330000  -3.3740000
  -1.9860000  38.8300000  -2.8110000  -2.5420000  38.0080000  -3.2660000
  -0.9290000  38.5590000  -2.8350000  -2.4340000  38.9830000  -1.3500000
  -2.0640000  38.1520000  -0.7460000  -3.5250000  38.9880000  -1.2940000
  -2.0660000  39.9180000  -0.9240000 -29.7020000  15.2780000   1.5190000
 -29.6340000  15.3390000   2.6070000 -29.0120000  14.5060000   1.1710000
 -30.7180000  14.9810000   1.2510000 -29.3540000  16.6360000   0.8880000
 -28.3510000  16.9340000   1.1990000 -30.0520000  17.3900000   1.2590000
 -29.4220000  16.5830000  -0.6470000 -30.4200000  16.2570000  -0.9460000
 -28.7070000  15.8390000  -1.0050000 -29.1140000  17.9420000  -1.3020000
 -28.0730000  18.2090000  -1.1070000 -29.7370000  18.7090000  -0.8380000
 -29.3790000  17.9570000  -2.8220000 -29.1820000  18.9610000  -3.2030000
 -30.4380000  17.7510000  -2.9870000 -28.5260000  16.9450000  -3.6130000
 -28.7110000  15.9340000  -3.2430000 -27.4680000  17.1510000  -3.4390000
 -28.7870000  16.9660000  -5.1300000 -28.1200000  16.2390000  -5.5990000
 -28.5190000  17.9490000  -5.5250000 -30.2440000  16.6280000  -5.5110000
 -30.9110000  17.4350000  -5.1990000 -30.5520000  15.7280000  -4.9740000
 -30.4170000  16.3770000  -7.0210000 -31.4150000  15.9710000  -7.2030000
 -29.7120000  15.6010000  -7.3240000 -30.2330000  17.6410000  -7.8910000
 -29.7180000  18.4250000  -7.3320000 -31.2200000  18.0340000  -8.1420000
 -29.4540000  17.3660000  -9.1910000 -29.5700000  18.2200000  -9.8620000
 -29.8940000  16.4990000  -9.6880000 -27.9490000  17.1370000  -8.9330000
 -27.8150000  16.3220000  -8.2180000 -27.5300000  18.0340000  -8.4720000
 -27.1370000  16.8120000 -10.2020000 -26.0820000  16.7400000  -9.9300000
 -27.2330000  17.6310000 -10.9170000 -27.5730000  15.4950000 -10.8680000
 -28.5940000  15.6000000 -11.2420000 -27.5770000  14.6980000 -10.1210000
 -26.6520000  15.0900000 -12.0370000 -25.6410000  14.8950000 -11.6750000
 -26.5900000  15.9100000 -12.7550000 -27.1560000  13.8640000 -12.7600000
 -27.9850000  13.0910000 -12.3100000 -26.5830000  13.7340000 -13.9730000
 -27.0960000  12.7280000 -14.8930000 -27.4860000  11.8630000 -14.3510000
 -26.2650000  12.3830000 -15.5140000 -28.1830000  13.3360000 -15.8210000
 -28.5900000  12.5580000 -16.4720000 -27.5840000  14.4420000 -16.7180000
 -26.7080000  14.0570000 -17.2470000 -27.2800000  15.2900000 -16.0970000
 -28.5660000  14.8850000 -17.6920000 -28.2170000  16.0540000 -18.7500000
 -29.5850000  16.1610000 -19.5840000 -30.7380000  16.8010000 -19.0080000
 -30.7480000  17.8520000 -19.3070000 -30.6880000  16.7560000 -17.9170000
 -32.0150000  16.0900000 -19.5050000 -32.0530000  16.1270000 -20.5940000
 -32.8780000  16.6340000 -19.1160000 -32.2390000  14.6510000 -19.1120000
 -32.0240000  14.4360000 -17.6480000 -30.9770000  14.6430000 -17.4200000
 -32.2660000  13.3990000 -17.4080000 -32.6760000  15.1200000 -17.1040000
 -33.6520000  14.2960000 -19.4340000 -33.8140000  14.4470000 -20.5030000
 -34.3100000  14.9490000 -18.8590000 -33.8280000  13.2520000 -19.1690000
 -31.3440000  13.7320000 -19.8790000 -31.4990000  13.9080000 -20.9440000
 -31.5910000  12.7000000 -19.6230000 -30.3110000  13.9570000 -19.6100000
 -28.0020000  17.3310000 -18.0160000 -27.1580000  15.5600000 -19.6710000
 -29.2560000  13.9310000 -15.0380000 -30.1870000  13.1330000 -14.4860000
 -30.2070000  11.9210000 -14.6090000 -31.2350000  13.9420000 -13.7580000
 -30.8080000  14.9070000 -13.4780000 -32.0490000  14.1420000 -14.4580000
 -31.7880000  13.2540000 -12.4920000 -32.1260000  12.2450000 -12.7370000
 -30.9980000  13.1650000 -11.7440000 -32.9690000  14.0650000 -11.9220000
 -32.6050000  15.0390000 -11.5890000 -33.6840000  14.2520000 -12.7260000
 -33.7290000  13.3880000 -10.7660000 -34.5700000  14.0300000 -10.4980000
 -34.1500000  12.4410000 -11.1100000 -32.8760000  13.1410000  -9.5080000
 -32.1430000  12.3570000  -9.7080000 -32.3280000  14.0520000  -9.2590000
 -33.7580000  12.7440000  -8.3070000 -34.4970000  13.5300000  -8.1420000
 -34.3080000  11.8300000  -8.5390000 -32.9610000  12.5480000  -7.0040000
 -32.3370000  13.4250000  -6.8210000 -33.6710000  12.4850000  -6.1770000
 -32.1440000  11.2720000  -7.0310000 -32.7320000  10.3580000  -7.0510000
 -30.8190000  11.1880000  -6.9680000 -30.3500000  10.2070000  -6.9600000
 -29.8530000  12.3550000  -6.9640000 -28.8930000  12.0240000  -7.3660000
 -30.2120000  13.1450000  -7.6270000 -29.6330000  12.9380000  -5.5530000
 -28.8900000  13.7360000  -5.6180000 -30.5670000  13.3910000  -5.2160000
 -29.1680000  11.8980000  -4.5140000 -29.9500000  11.1480000  -4.3780000
 -28.2920000  11.3750000  -4.9030000 -28.8040000  12.5060000  -3.1430000
 -28.5690000  11.6930000  -2.4520000 -27.8930000  13.0970000  -3.2560000
 -29.8860000  13.4060000  -2.5090000 -29.5110000  13.7700000  -1.5500000
 -30.0380000  14.2780000  -3.1490000 -31.2400000  12.7140000  -2.2770000
 -31.6320000  12.3550000  -3.2320000 -31.0880000  11.8460000  -1.6320000
 -32.2960000  13.6310000  -1.6330000 -33.1870000  13.0360000  -1.4220000
 -31.9220000  14.0030000  -0.6770000 -32.7010000  14.8220000  -2.5210000
 -33.4950000  15.3960000  -2.0390000 -33.0680000  14.4710000  -3.4880000
 -31.8550000  15.4910000  -2.6920000   8.5800000 -30.0710000  -1.5300000
   8.0890000 -29.9240000  -0.5650000   9.5740000 -30.4870000  -1.3530000
   7.9980000 -30.7900000  -2.1100000   8.6760000 -28.7430000  -2.2890000
   9.1930000 -28.0120000  -1.6630000   7.6670000 -28.3700000  -2.4750000
   9.4270000 -28.8830000  -3.6230000   8.9920000 -29.7010000  -4.2010000
  10.4690000 -29.1460000  -3.4280000   9.3670000 -27.5870000  -4.4490000
   9.7840000 -26.7600000  -3.8700000   8.3220000 -27.3440000  -4.6540000
  10.1310000 -27.7120000  -5.7780000   9.8880000 -28.6640000  -6.2530000
  11.2040000 -27.7070000  -5.5730000   9.7790000 -26.5690000  -6.7450000
   9.9420000 -25.6080000  -6.2520000   8.7170000 -26.6330000  -6.9920000
  10.6020000 -26.6190000  -8.0430000  10.5300000 -27.6170000  -8.4800000
  11.6530000 -26.4320000  -7.8110000  10.0990000 -25.5750000  -9.0550000
  10.0420000 -24.6050000  -8.5560000   9.0820000 -25.8300000  -9.3600000
  10.9940000 -25.4300000 -10.3020000  11.9670000 -25.0430000  -9.9910000
  10.5530000 -24.6810000 -10.9630000  11.2180000 -26.7290000 -11.1030000
  11.7690000 -27.4460000 -10.4900000  11.8520000 -26.4960000 -11.9610000
   9.9170000 -27.3860000 -11.6060000   9.3350000 -26.6530000 -12.1690000
   9.3160000 -27.6990000 -10.7490000  10.2100000 -28.6030000 -12.5060000
  10.8250000 -29.3190000 -11.9570000  10.7960000 -28.2700000 -13.3660000
   8.9460000 -29.3170000 -13.0230000   9.2520000 -30.0830000 -13.7390000
   8.3210000 -28.6030000 -13.5620000   8.1270000 -29.9860000 -11.9010000
   7.7210000 -29.2260000 -11.2300000   8.7920000 -30.6180000 -11.3080000
   6.9750000 -30.8610000 -12.4350000   7.3710000 -31.6060000 -13.1290000
   6.5130000 -31.4030000 -11.6080000   5.9090000 -30.0460000 -13.1270000
   5.1310000 -29.3190000 -12.5320000   5.9000000 -30.2480000 -14.4630000
   4.9570000 -29.5000000 -15.2890000   4.0640000 -29.2240000 -14.7220000
   4.6380000 -30.1510000 -16.1070000   5.6140000 -28.2390000 -15.9050000
   4.8560000 -27.7310000 -16.5070000   6.8080000 -28.6200000 -16.8120000
   6.5620000 -29.4990000 -17.4140000   7.6650000 -28.8590000 -16.1780000
   7.1550000 -27.5130000 -17.6930000   6.3770000 -27.2740000 -19.0940000
   7.2900000 -28.0730000 -20.1560000   8.4430000 -27.4610000 -20.7730000
   8.2130000 -26.4250000 -21.0380000   8.6660000 -27.9960000 -21.7000000
   9.6640000 -27.5090000 -19.8220000   9.3770000 -27.0970000 -18.8540000
  10.4500000 -26.8770000 -20.2380000  10.3140000 -28.8460000 -19.5480000
   9.3920000 -29.7790000 -18.8350000   9.0940000 -29.3080000 -17.8970000
   9.9140000 -30.7170000 -18.6440000   8.5160000 -29.9450000 -19.4640000
  10.7770000 -29.4910000 -20.8150000  11.4370000 -28.8000000 -21.3400000
   9.9060000 -29.7230000 -21.4300000  11.3140000 -30.4070000 -20.5650000
  11.5060000 -28.6260000 -18.6760000  12.2110000 -27.9800000 -19.2000000
  11.9660000 -29.5920000 -18.4630000  11.1770000 -28.1530000 -17.7490000
   5.0610000 -27.9620000 -19.0370000   6.4030000 -25.8220000 -19.4170000
   6.1200000 -27.3750000 -14.8470000   5.5970000 -26.1430000 -14.6870000
   4.6610000 -25.6970000 -15.3290000   6.2920000 -25.3780000 -13.5850000
   7.3270000 -25.7200000 -13.5090000   6.3090000 -24.3150000 -13.8350000
   5.5700000 -25.5970000 -12.2450000   4.5640000 -25.1780000 -12.3050000
   5.4690000 -26.6730000 -12.0860000   6.3190000 -24.9740000 -11.0510000
   7.3050000 -25.4370000 -10.9680000   6.4780000 -23.9100000 -11.2410000
   5.5730000 -25.1320000  -9.7090000   6.1910000 -24.6970000  -8.9200000
   4.6460000 -24.5570000  -9.7480000   5.2480000 -26.6010000  -9.3640000
   4.5920000 -27.0160000 -10.1310000   6.1710000 -27.1840000  -9.3790000
   4.5520000 -26.8040000  -8.0050000   3.5990000 -26.2700000  -7.9960000
   4.3240000 -27.8670000  -7.8990000   5.4000000 -26.3560000  -6.8010000
   6.4240000 -26.7170000  -6.9200000   5.4540000 -25.2650000  -6.7760000
   4.8070000 -26.8640000  -5.5030000   4.1070000 -26.1880000  -5.0170000
   5.0990000 -28.0250000  -4.9240000   4.6300000 -28.2740000  -3.9750000
   6.0430000 -29.0750000  -5.4810000   6.3890000 -28.7980000  -6.4790000
   6.9270000 -29.1380000  -4.8430000   5.4230000 -30.4820000  -5.5720000
   4.4480000 -30.4340000  -6.0620000   6.0680000 -31.0740000  -6.2240000
   5.3120000 -31.2390000  -4.2320000   5.3160000 -32.3070000  -4.4620000
   6.1980000 -31.0480000  -3.6230000   4.0350000 -30.9270000  -3.4260000
   4.0750000 -29.9160000  -3.0170000   3.1780000 -30.9690000  -4.1020000
   3.8040000 -31.9410000  -2.2890000   2.7760000 -31.8430000  -1.9350000
   3.8990000 -32.9480000  -2.7010000   4.7640000 -31.8110000  -1.0900000
   4.6660000 -32.7090000  -0.4770000   5.7980000 -31.7730000  -1.4380000
   4.4640000 -30.5900000  -0.2020000   4.6700000 -29.6690000  -0.7530000
   3.4040000 -30.5890000   0.0590000   5.2870000 -30.6070000   1.0970000
   5.0160000 -29.7560000   1.7250000   6.3550000 -30.5540000   0.8770000
   5.0910000 -31.5210000   1.6610000  28.7030000  -4.3920000  -1.1870000
  29.0090000  -4.3350000  -0.1410000  29.6010000  -4.4660000  -1.8050000
  28.1100000  -5.2980000  -1.3310000  27.8870000  -3.1490000  -1.5740000
  28.5170000  -2.2660000  -1.4540000  27.0370000  -3.0400000  -0.8970000
  27.3780000  -3.2330000  -3.0250000  26.5830000  -3.9780000  -3.0930000
  28.1960000  -3.5700000  -3.6660000  26.8700000  -1.8770000  -3.5490000
  27.6680000  -1.1400000  -3.4330000  26.0230000  -1.5340000  -2.9520000
  26.4660000  -1.9500000  -5.0330000  25.4790000  -2.4070000  -5.1300000
  27.1680000  -2.5940000  -5.5650000  26.4740000  -0.5700000  -5.7100000
  27.4510000  -0.1070000  -5.5580000  25.7250000   0.0750000  -5.2450000
  26.2000000  -0.6740000  -7.2190000  25.1700000  -0.9990000  -7.3820000
  26.8580000  -1.4330000  -7.6460000  26.4410000   0.6680000  -7.9330000
  27.4990000   0.9250000  -7.8500000  25.8760000   1.4510000  -7.4230000
  26.0320000   0.6610000  -9.4180000  26.2800000   1.6290000  -9.8570000
  24.9470000   0.5500000  -9.4720000  26.6820000  -0.4590000 -10.2540000
  26.3960000  -1.4300000  -9.8440000  27.7700000  -0.3800000 -10.1950000
  26.2320000  -0.3970000 -11.7260000  26.6830000   0.4700000 -12.2130000
  25.1500000  -0.2560000 -11.7530000  26.5610000  -1.6750000 -12.5200000
  26.1050000  -1.5980000 -13.5090000  26.0960000  -2.5280000 -12.0210000
  28.0680000  -1.9450000 -12.6860000  28.5480000  -2.0000000 -11.7060000
  28.5220000  -1.1200000 -13.2380000  28.3050000  -3.2650000 -13.4400000
  27.8140000  -3.2160000 -14.4140000  27.8300000  -4.0730000 -12.8790000
  29.7900000  -3.6150000 -13.6460000  30.3080000  -3.6580000 -12.6850000
  30.2760000  -2.8620000 -14.2690000  29.8960000  -4.9620000 -14.3110000
  29.8180000  -6.0120000 -13.6950000  30.0340000  -4.8660000 -15.6470000
  29.6550000  -6.0060000 -16.4700000  29.9150000  -6.9440000 -15.9720000
  30.2270000  -5.9520000 -17.4000000  28.1400000  -5.9890000 -16.8370000
  27.8900000  -6.9530000 -17.2860000  27.7680000  -4.9010000 -17.8820000
  26.6810000  -4.9000000 -17.9940000  28.2100000  -5.1510000 -18.8500000
  28.2200000  -3.5720000 -17.4930000  27.3890000  -2.2330000 -17.8670000
  27.6380000  -2.1000000 -19.4520000  28.9020000  -1.6340000 -19.9550000
  29.7020000  -2.2930000 -19.6060000  29.0880000  -0.6280000 -19.5710000
  28.8490000  -1.5860000 -21.5000000  29.7780000  -1.1430000 -21.8640000
  28.0240000  -0.9440000 -21.8090000  28.6840000  -2.8830000 -22.2590000
  29.7080000  -3.8900000 -21.8450000  30.7000000  -3.4580000 -21.9880000
  29.5900000  -4.7800000 -22.4640000  29.5480000  -4.1380000 -20.7950000
  27.3210000  -3.4640000 -22.0750000  26.5840000  -2.7280000 -22.4010000
  27.1800000  -3.6860000 -21.0160000  27.2410000  -4.3740000 -22.6700000
  28.8670000  -2.6070000 -23.7150000  28.1160000  -1.8800000 -24.0290000
  28.7400000  -3.5400000 -24.2650000  29.8700000  -2.2080000 -23.8740000
  25.9340000  -2.4690000 -17.6500000  28.0300000  -1.0680000 -17.1980000
  27.2980000  -5.7950000 -15.6630000  27.0920000  -6.8200000 -14.8150000
  27.5700000  -7.9330000 -14.9580000  26.1490000  -6.4290000 -13.6980000
  25.9740000  -5.3520000 -13.7380000  25.1870000  -6.9120000 -13.8810000
  26.6700000  -6.8020000 -12.2950000  26.8740000  -7.8740000 -12.2490000
  27.6050000  -6.2750000 -12.0940000  25.6220000  -6.4320000 -11.2290000
  25.3930000  -5.3670000 -11.3010000  24.6990000  -6.9690000 -11.4580000
  26.0170000  -6.7620000  -9.7770000  25.1140000  -6.6700000  -9.1690000
  26.3410000  -7.8020000  -9.7060000  27.1020000  -5.8400000  -9.1790000
  28.0840000  -6.1170000  -9.5680000  26.9040000  -4.8080000  -9.4770000
  27.0900000  -5.9220000  -7.6380000  26.0830000  -5.6750000  -7.2960000
  27.2860000  -6.9490000  -7.3220000  28.0680000  -4.9690000  -6.9250000
  28.0290000  -3.9810000  -7.3870000  27.7130000  -4.8600000  -5.8980000
  29.4810000  -5.5140000  -6.8660000  29.5540000  -6.5840000  -6.6920000
  30.5960000  -4.7930000  -6.9440000  31.5560000  -5.2940000  -6.8460000
  30.6780000  -3.3050000  -7.2170000  31.6870000  -3.0600000  -7.5560000
  30.0050000  -3.0440000  -8.0380000  30.3340000  -2.4350000  -5.9910000
  30.3480000  -1.3880000  -6.3010000  29.3130000  -2.6560000  -5.6750000
  31.2720000  -2.6060000  -4.7800000  31.2120000  -3.6300000  -4.4060000
  32.3030000  -2.4230000  -5.0900000  30.8940000  -1.6230000  -3.6530000
  30.9210000  -0.6060000  -4.0500000  29.8660000  -1.8140000  -3.3390000
  31.8150000  -1.7030000  -2.4220000  31.6860000  -2.6740000  -1.9390000
  32.8570000  -1.6310000  -2.7400000  31.5070000  -0.5780000  -1.4130000
  31.4530000   0.3750000  -1.9450000  30.5250000  -0.7540000  -0.9690000
  32.5570000  -0.4420000  -0.2940000  33.5120000  -0.1460000  -0.7340000
  32.2550000   0.3610000   0.3810000  32.7540000  -1.7260000   0.5250000
  33.4260000  -1.5420000   1.3660000  33.2030000  -2.5020000  -0.0980000
  31.8000000  -2.0870000   0.9150000  -6.0760000  42.3820000  -1.2990000
  -5.2240000  43.0320000  -1.0910000  -5.7000000  41.4660000  -1.7580000
  -6.5530000  42.1190000  -0.3520000  -7.0760000  43.0900000  -2.2280000
  -6.5460000  43.5300000  -3.0750000  -7.5410000  43.9110000  -1.6790000
  -8.1750000  42.1450000  -2.7430000  -8.9910000  42.7450000  -3.1510000
  -8.5810000  41.5730000  -1.9060000  -7.6800000  41.1790000  -3.8370000
  -6.8090000  40.6240000  -3.4840000  -7.3720000  41.7610000  -4.7080000
  -8.7810000  40.1790000  -4.2280000  -9.6830000  40.7210000  -4.5210000
  -9.0380000  39.5970000  -3.3400000  -8.3740000  39.2020000  -5.3470000
  -9.1930000  38.4990000  -5.5130000  -7.5180000  38.6150000  -5.0090000
  -8.0210000  39.8760000  -6.6890000  -7.7620000  39.0970000  -7.4090000
  -7.1310000  40.4970000  -6.5630000  -9.1670000  40.7310000  -7.2660000
  -9.4080000  41.5440000  -6.5780000 -10.0600000  40.1130000  -7.3770000
  -8.7890000  41.3340000  -8.6290000  -8.5300000  40.5200000  -9.3090000
  -7.9040000  41.9620000  -8.5070000  -9.9220000  42.1800000  -9.2390000
 -10.2000000  42.9630000  -8.5310000 -10.8040000  41.5520000  -9.3840000
  -9.5320000  42.8450000 -10.5750000  -8.6970000  43.5260000 -10.3940000
 -10.3670000  43.4550000 -10.9250000  -9.1270000  41.8610000 -11.6930000
  -8.2820000  41.2560000 -11.3600000  -8.7790000  42.4460000 -12.5470000
 -10.2720000  40.9350000 -12.1490000 -11.0590000  41.5420000 -12.6030000
 -10.7110000  40.4320000 -11.2850000  -9.8240000  39.8550000 -13.1530000
 -10.7080000  39.3020000 -13.4790000  -9.1680000  39.1440000 -12.6470000
  -9.0980000  40.4280000 -14.3860000  -8.1170000  40.8170000 -14.1070000
  -9.6770000  41.2580000 -14.7980000  -8.9210000  39.3780000 -15.4540000
  -8.2720000  38.3560000 -15.3150000  -9.5980000  39.6950000 -16.5700000
  -9.7800000  38.6840000 -17.6020000 -10.2960000  37.8210000 -17.1740000
  -8.8080000  38.3580000 -17.9810000 -10.6330000  39.2810000 -18.7540000
 -10.9610000  38.4820000 -19.4240000  -9.8230000  40.3250000 -19.5640000
  -8.7800000  40.0030000 -19.6130000  -9.8520000  41.2890000 -19.0490000
 -10.2930000  40.4820000 -20.9400000 -11.7550000  41.0820000 -21.3200000
 -11.9050000  42.3530000 -20.3380000 -11.4230000  43.6580000 -20.7130000
 -12.2340000  44.2160000 -21.1890000 -10.6020000  43.5580000 -21.4280000
 -10.8900000  44.4050000 -19.4670000 -10.6760000  45.4350000 -19.7560000
  -9.9560000  43.9460000 -19.1400000 -11.7710000  44.4900000 -18.2420000
 -11.6500000  43.2440000 -17.4290000 -11.9870000  42.4050000 -18.0380000
 -12.2720000  43.3480000 -16.5380000 -10.6040000  43.1060000 -17.1490000
 -11.3190000  45.6320000 -17.3950000 -11.4670000  46.5530000 -17.9610000
 -10.2640000  45.4950000 -17.1520000 -11.9230000  45.6530000 -16.4870000
 -13.2030000  44.7110000 -18.5920000 -13.2750000  45.6360000 -19.1670000
 -13.7810000  44.7990000 -17.6710000 -13.5470000  43.8600000 -19.1820000
 -11.6730000  41.5790000 -22.7240000 -12.8070000  40.0770000 -21.0020000
 -11.7760000  39.9730000 -18.1830000 -12.8220000  39.2600000 -17.7360000
 -12.9090000  38.0440000 -17.7860000 -13.8650000  40.1520000 -17.1090000
 -14.0660000  40.9810000 -17.7920000 -14.7940000  39.5960000 -16.9710000
 -13.3640000  40.6970000 -15.7570000 -13.3090000  39.8810000 -15.0340000
 -12.3510000  41.0880000 -15.8720000 -14.2700000  41.8160000 -15.2160000
 -14.3600000  42.6050000 -15.9660000 -15.2720000  41.4200000 -15.0430000
 -13.7160000  42.4220000 -13.9140000 -13.5680000  41.6220000 -13.1860000
 -12.7420000  42.8740000 -14.1110000 -14.6660000  43.4840000 -13.3280000
 -14.8820000  44.2330000 -14.0920000 -15.6150000  43.0090000 -13.0700000
 -14.1150000  44.2020000 -12.0810000 -13.2880000  44.8500000 -12.3790000
 -14.9000000  44.8470000 -11.6810000 -13.6270000  43.2500000 -10.9740000
 -14.3880000  42.4920000 -10.7810000 -12.7230000  42.7440000 -11.3180000
 -13.3170000  44.0200000  -9.7090000 -13.1860000  45.0920000  -9.8340000
 -13.3030000  43.5000000  -8.4870000 -13.1270000  44.1480000  -7.6330000
 -13.3920000  42.0230000  -8.1630000 -13.1430000  41.4170000  -9.0370000
 -12.6470000  41.7970000  -7.3970000 -14.7940000  41.6300000  -7.6620000
 -15.0800000  42.2770000  -6.8300000 -15.5150000  41.7970000  -8.4640000
 -14.8830000  40.1580000  -7.2110000 -15.9280000  39.9210000  -7.0010000
 -14.5570000  39.5040000  -8.0220000 -14.0430000  39.8750000  -5.9510000
 -12.9860000  40.0470000  -6.1640000 -14.3380000  40.5790000  -5.1700000
 -14.2170000  38.4400000  -5.4220000 -15.2840000  38.2290000  -5.3240000
 -13.8090000  37.7230000  -6.1360000 -13.5520000  38.2550000  -4.0450000
 -13.8500000  39.0850000  -3.4010000 -13.9380000  37.3420000  -3.5880000
 -12.0150000  38.1800000  -4.0790000 -11.7150000  37.2240000  -4.5150000
 -11.6080000  38.9710000  -4.7120000 -11.4150000  38.3150000  -2.6690000
 -10.3720000  37.9930000  -2.6680000 -11.9630000  37.7040000  -1.9480000
 -11.4630000  39.3530000  -2.3350000  23.9980000 -18.9330000  -1.0780000
  23.8490000 -18.8320000  -0.0010000  23.6340000 -18.0230000  -1.5580000
  25.0690000 -19.0270000  -1.2700000  23.2440000 -20.1690000  -1.6010000
  22.1730000 -20.0340000  -1.4320000  23.5530000 -21.0370000  -1.0160000
  23.4920000 -20.4640000  -3.0940000  23.0060000 -21.4080000  -3.3490000
  24.5640000 -20.5970000  -3.2550000  22.9550000 -19.3660000  -4.0310000
  23.4420000 -18.4170000  -3.7970000  21.8870000 -19.2320000  -3.8470000
  23.1650000 -19.6660000  -5.5280000  22.6780000 -18.8750000  -6.1020000
  22.6710000 -20.6050000  -5.7890000  24.6520000 -19.7290000  -5.9240000
  25.0870000 -20.6670000  -5.5720000  25.1860000 -18.9190000  -5.4220000
  24.8930000 -19.5840000  -7.4390000  25.9700000 -19.5420000  -7.6140000
  24.4820000 -18.6280000  -7.7690000  24.3010000 -20.7160000  -8.3040000
  23.2220000 -20.7810000  -8.1510000  24.7390000 -21.6690000  -8.0020000
  24.5930000 -20.4620000  -9.7960000  25.6690000 -20.3340000  -9.9310000
  24.1180000 -19.5270000 -10.0980000  24.1080000 -21.5820000 -10.7350000
  23.0390000 -21.7490000 -10.5890000  24.6280000 -22.5110000 -10.4900000
  24.3830000 -21.2020000 -12.2040000  25.4320000 -20.9140000 -12.2990000
  23.7900000 -20.3240000 -12.4670000  24.1090000 -22.3320000 -13.2140000
  24.7540000 -23.1800000 -12.9740000  24.4030000 -21.9890000 -14.2080000
  22.6520000 -22.8280000 -13.2600000  22.3960000 -23.2790000 -12.2980000
  22.5830000 -23.6210000 -14.0080000  21.5960000 -21.7600000 -13.5960000
  21.5400000 -21.0350000 -12.7820000  20.6290000 -22.2660000 -13.6420000
  21.8410000 -21.0090000 -14.9210000  22.5180000 -21.5820000 -15.5590000
  22.3150000 -20.0450000 -14.7230000  20.5590000 -20.8060000 -15.6910000
  19.9950000 -21.7140000 -16.2790000  20.1220000 -19.5320000 -15.7040000
  19.0110000 -19.2280000 -16.6040000  18.1150000 -19.7340000 -16.2350000
  19.2390000 -19.6180000 -17.6000000  18.7070000 -17.7110000 -16.7410000
  17.8600000 -17.6460000 -17.4280000  19.8190000 -16.8410000 -17.3930000
  19.9390000 -15.9200000 -16.8170000  19.4840000 -16.5630000 -18.3950000
  21.1160000 -17.4980000 -17.4940000  21.8390000 -17.7600000 -18.9180000
  21.0860000 -19.0690000 -19.4700000  21.5280000 -20.3950000 -19.1190000
  20.6710000 -21.0720000 -19.1590000  21.9140000 -20.3880000 -18.0970000
  22.6290000 -20.8740000 -20.0960000  22.9800000 -21.8530000 -19.7670000
  23.4710000 -20.1820000 -20.0520000  22.2860000 -21.0280000 -21.5590000
  22.0870000 -19.7040000 -22.2190000  21.2440000 -19.2040000 -21.7410000
  21.8820000 -19.8670000 -23.2790000  22.9940000 -19.1120000 -22.0910000
  23.4230000 -21.7130000 -22.2410000  23.5620000 -22.6960000 -21.7900000
  24.3210000 -21.1070000 -22.1120000  23.1860000 -21.8140000 -23.3010000
  21.0570000 -21.8570000 -21.7480000  21.1990000 -22.8150000 -21.2460000
  20.9010000 -22.0080000 -22.8170000  20.2090000 -21.3210000 -21.3180000
  21.5280000 -16.6330000 -19.8360000  23.2640000 -18.0850000 -18.6510000
  18.3370000 -17.1460000 -15.4460000  17.0560000 -16.7690000 -15.2320000
  16.1860000 -16.8000000 -16.0870000  16.7980000 -16.2630000 -13.8300000
  17.3090000 -15.3070000 -13.7000000  15.7270000 -16.0750000 -13.7350000
  17.2700000 -17.2480000 -12.7340000  17.3040000 -18.2660000 -13.1270000
  18.2930000 -16.9900000 -12.4540000  16.3790000 -17.2260000 -11.4740000
  16.9140000 -17.7100000 -10.6540000  16.2190000 -16.1860000 -11.1810000
  15.0180000 -17.9330000 -11.6690000  14.5560000 -17.5740000 -12.5910000
  15.1710000 -19.0070000 -11.7940000  14.0180000 -17.6930000 -10.5210000
  13.8180000 -16.6200000 -10.4870000  13.0690000 -18.1730000 -10.7690000
  14.4520000 -18.1340000  -9.1060000  15.4610000 -17.7740000  -8.8960000
  13.7920000 -17.6310000  -8.3970000  14.3580000 -19.6490000  -8.8200000
  14.2320000 -19.7830000  -7.7440000  13.4580000 -20.0380000  -9.3000000
  15.5670000 -20.4230000  -9.3080000  16.0460000 -20.0210000 -10.1970000
  16.0710000 -21.5180000  -8.7420000  16.9450000 -21.9900000  -9.1850000
  15.5500000 -22.1940000  -7.4910000  15.1080000 -21.4630000  -6.8110000
  14.7710000 -22.9050000  -7.7730000  16.6440000 -22.9650000  -6.7270000
  16.1640000 -23.5440000  -5.9360000  17.1270000 -23.6780000  -7.3990000
  17.7080000 -22.0530000  -6.0870000  18.2340000 -21.5100000  -6.8760000
  17.2080000 -21.3170000  -5.4550000  18.7320000 -22.8510000  -5.2520000
  18.2030000 -23.4520000  -4.5090000  19.2520000 -23.5470000  -5.9130000
  19.7840000 -21.9700000  -4.5450000  20.5670000 -22.6130000  -4.1370000
  20.2670000 -21.3360000  -5.2910000  19.2250000 -21.0720000  -3.4190000
  20.0070000 -20.3780000  -3.1040000  18.4090000 -20.4630000  -3.8130000
  18.7180000 -21.8300000  -2.1740000  18.2320000 -21.1160000  -1.5070000
  17.9600000 -22.5610000  -2.4630000  19.8430000 -22.5360000  -1.3950000
  19.4380000 -23.0270000  -0.5080000  20.5960000 -21.8140000  -1.0740000
  20.3310000 -23.2930000  -2.0130000 -34.7440000  24.9490000  -0.6710000
 -34.8590000  25.0450000   0.4110000 -34.7880000  23.8900000  -0.9320000
 -35.5770000  25.4620000  -1.1570000 -33.4080000  25.5570000  -1.1230000
 -32.5890000  24.9950000  -0.6670000 -33.3420000  26.5870000  -0.7680000
 -33.2540000  25.5330000  -2.6520000 -34.0240000  26.1670000  -3.0950000
 -33.4170000  24.5160000  -3.0150000 -31.8610000  26.0100000  -3.1010000
 -31.1110000  25.3430000  -2.6710000 -31.6650000  27.0090000  -2.7080000
 -31.7030000  26.0030000  -4.6330000 -32.0670000  25.0500000  -5.0240000
 -30.6400000  26.0560000  -4.8760000 -32.4220000  27.1580000  -5.3570000
 -33.4740000  27.1780000  -5.0630000 -32.4040000  26.9470000  -6.4280000
 -31.7810000  28.5420000  -5.0910000 -30.9000000  28.4210000  -4.4570000
 -32.4830000  29.1700000  -4.5400000 -31.3440000  29.2620000  -6.3840000
 -30.7100000  28.5850000  -6.9600000 -30.7290000  30.1260000  -6.1250000
 -32.5310000  29.7360000  -7.2460000 -32.9940000  30.6000000  -6.7640000
 -33.2870000  28.9490000  -7.2940000 -32.1370000  30.1040000  -8.6860000
 -31.2640000  30.7600000  -8.6750000 -32.9580000  30.6630000  -9.1410000
 -31.8530000  28.8530000  -9.5400000 -32.7320000  28.2050000  -9.5330000
 -31.0290000  28.2930000  -9.0930000 -31.4970000  29.2000000 -10.9970000
 -30.6010000  29.8240000 -11.0030000 -32.3010000  29.7970000 -11.4330000
 -31.2550000  27.9650000 -11.8870000 -30.9740000  28.3110000 -12.8840000
 -32.1860000  27.4040000 -11.9900000 -30.1520000  27.0330000 -11.3440000
 -30.4990000  26.5380000 -10.4340000 -29.2830000  27.6340000 -11.0680000
 -29.7000000  25.9710000 -12.3650000 -28.8180000  25.4500000 -11.9870000
 -29.4090000  26.4670000 -13.2930000 -30.7580000  24.9390000 -12.6830000
 -31.5960000  24.5450000 -11.8870000 -30.6110000  24.4660000 -13.9400000
 -31.5880000  23.5180000 -14.4610000 -31.9460000  22.8660000 -13.6600000
 -31.0780000  22.8840000 -15.1920000 -32.7970000  24.1940000 -15.1730000
 -33.5140000  23.3880000 -15.3530000 -32.4520000  24.8030000 -16.5580000
 -33.3810000  25.1340000 -17.0310000 -32.0060000  24.0340000 -17.1940000
 -31.5450000  25.9350000 -16.4800000 -31.2720000  26.8480000 -17.7830000
 -32.6500000  27.6650000 -17.9360000 -32.6820000  28.9070000 -18.6600000
 -32.1490000  28.7910000 -19.6070000 -32.1770000  29.6750000 -18.0690000
 -34.1520000  29.3180000 -18.9170000 -34.1510000  30.2830000 -19.4270000
 -34.6640000  29.4410000 -17.9620000 -35.0220000  28.4080000 -19.7540000
 -35.3840000  27.1590000 -19.0190000 -34.4650000  26.6110000 -18.8030000
 -36.0440000  26.5600000 -19.6480000 -35.8870000  27.4340000 -18.0910000
 -36.2910000  29.1260000 -20.0790000 -36.0490000  30.0250000 -20.6480000
 -36.7940000  29.3880000 -19.1470000 -36.9220000  28.4640000 -20.6740000
 -34.3520000  28.0390000 -21.0370000 -34.0860000  28.9530000 -21.5700000
 -35.0440000  27.4410000 -21.6320000 -33.4590000  27.4580000 -20.8040000
 -30.1740000  27.8030000 -17.4690000 -31.1310000  25.9600000 -18.9710000
 -33.4140000  25.1940000 -14.3090000 -34.7420000  25.3980000 -14.4090000
 -35.4520000  24.8680000 -15.2510000 -35.2470000  26.3720000 -13.3640000
 -35.5070000  25.8060000 -12.4670000 -34.4370000  27.0480000 -13.0830000
 -36.4740000  27.1870000 -13.8340000 -37.2920000  26.4970000 -14.0500000
 -36.8160000  27.8250000 -13.0160000 -36.2180000  28.0570000 -15.0840000
 -35.8880000  27.4110000 -15.9000000 -37.1610000  28.5030000 -15.4060000
 -35.1740000  29.1760000 -14.8960000 -34.2650000  28.7710000 -14.4470000
 -34.8860000  29.5350000 -15.8860000 -35.6850000  30.3910000 -14.0930000
 -35.6510000  31.2600000 -14.7530000 -36.7340000  30.2590000 -13.8190000
 -34.8450000  30.7180000 -12.8410000 -33.7900000  30.5440000 -13.0590000
 -34.9430000  31.7850000 -12.6300000 -35.2460000  29.9390000 -11.5720000
 -35.1600000  28.8670000 -11.7610000 -34.5340000  30.1910000 -10.7840000
 -36.6400000  30.3150000 -11.1050000 -36.9800000  31.2970000 -11.4230000
 -37.4630000  29.5440000 -10.4000000 -38.4520000  29.9190000 -10.1470000
 -37.1380000  28.1680000  -9.8500000 -37.8490000  27.4440000 -10.2530000
 -36.1430000  27.8440000 -10.1620000 -37.2060000  28.1130000  -8.3090000
 -38.2450000  28.1760000  -7.9790000 -36.8280000  27.1390000  -7.9940000
 -36.3840000  29.2260000  -7.6260000 -35.5360000  29.4830000  -8.2640000
 -36.9980000  30.1240000  -7.5400000 -35.8190000  28.8520000  -6.2430000
 -35.0820000  28.0580000  -6.3750000 -35.2860000  29.7220000  -5.8550000
 -36.8380000  28.3810000  -5.1890000 -37.6990000  29.0530000  -5.1760000
 -37.2000000  27.3820000  -5.4410000 -36.1880000  28.3750000  -3.7930000
 -35.2300000  27.8510000  -3.8370000 -35.9690000  29.4080000  -3.5150000
 -37.0520000  27.7280000  -2.6970000 -38.0960000  28.0290000  -2.8140000
 -37.0180000  26.6410000  -2.7960000 -36.5600000  28.1450000  -1.2990000
 -37.1730000  27.6850000  -0.5210000 -36.6230000  29.2290000  -1.1820000
 -35.5220000  27.8420000  -1.1500000  33.5050000  34.0170000  -1.9440000
  34.4250000  34.0980000  -2.5270000  33.4430000  33.0080000  -1.5310000
  33.5650000  34.7260000  -1.1160000  32.2870000  34.3230000  -2.8340000
  32.3500000  33.7140000  -3.7380000  32.3320000  35.3680000  -3.1470000
  30.9260000  34.0550000  -2.1590000  30.8180000  32.9820000  -1.9840000
  30.1420000  34.3470000  -2.8610000  30.7330000  34.8110000  -0.8280000
  30.9330000  35.8730000  -0.9830000  31.4750000  34.4530000  -0.1110000
  29.3350000  34.6340000  -0.1950000  29.3210000  35.1580000   0.7630000
  29.1730000  33.5770000   0.0240000  28.1600000  35.1480000  -1.0520000
  27.2310000  34.9840000  -0.5020000  28.0940000  34.5570000  -1.9670000
  28.2830000  36.6470000  -1.3990000  29.1830000  36.8130000  -1.9950000
  28.4050000  37.2160000  -0.4750000  27.0680000  37.2110000  -2.1620000
  27.2440000  38.2690000  -2.3640000  26.1910000  37.1590000  -1.5130000
  26.7450000  36.4910000  -3.4870000  25.9270000  37.0220000  -3.9800000
  26.3710000  35.4890000  -3.2630000  27.9240000  36.3620000  -4.4740000
  27.5510000  35.8800000  -5.3800000  28.6790000  35.6950000  -4.0510000
  28.5900000  37.7030000  -4.8470000  28.9420000  38.2020000  -3.9410000
  27.8510000  38.3620000  -5.3070000  29.7900000  37.5470000  -5.8020000
  30.5630000  36.9490000  -5.3150000  30.2160000  38.5370000  -5.9820000
  29.4250000  36.9030000  -7.1550000  28.5810000  37.4390000  -7.5930000
  29.1120000  35.8690000  -6.9980000  30.6060000  36.9240000  -8.1420000
  31.4400000  36.3580000  -7.7200000  30.9430000  37.9540000  -8.2740000
  30.2210000  36.3270000  -9.5120000  29.3650000  36.8630000  -9.9280000
  29.9150000  35.2870000  -9.3800000  31.3460000  36.3710000 -10.5220000
  32.3400000  37.0730000 -10.4310000  31.1180000  35.5310000 -11.5500000
  32.1250000  35.4140000 -12.6000000  33.1190000  35.3530000 -12.1490000
  32.0830000  36.2950000 -13.2450000  31.8970000  34.1280000 -13.4320000
  32.6740000  34.0800000 -14.1990000  30.4980000  34.1380000 -14.1020000
  30.4720000  34.9330000 -14.8510000  29.7240000  34.3330000 -13.3550000
  30.2180000  32.8620000 -14.7450000  29.1010000  32.7210000 -15.9000000
  29.8650000  33.2890000 -17.1960000  30.9370000  32.5440000 -17.8040000
  30.6690000  31.4870000 -17.8730000  31.8270000  32.6340000 -17.1760000
  31.2160000  33.1160000 -19.2150000  32.0640000  32.5800000 -19.6430000
  31.4880000  34.1690000 -19.1290000  30.1140000  33.0440000 -20.2500000
  29.0240000  34.0230000 -19.9600000  28.5790000  33.7650000 -18.9980000
  28.2760000  33.9640000 -20.7520000  29.4580000  35.0230000 -19.9150000
  30.6870000  33.3860000 -21.5870000  31.4640000  32.6600000 -21.8330000
  31.1080000  34.3910000 -21.5390000  29.8880000  33.3480000 -22.3290000
  29.5270000  31.6720000 -20.3330000  30.3260000  30.9620000 -20.5530000
  28.7800000  31.6610000 -21.1290000  29.0560000  31.4420000 -19.3760000
  28.8110000  31.2760000 -16.1150000  27.9690000  33.6410000 -15.5980000
  31.9980000  32.9890000 -12.5340000  32.4350000  31.8100000 -13.0120000
  33.0090000  31.6640000 -14.0800000  32.1950000  30.6770000 -12.0390000
  32.7100000  29.7880000 -12.4110000  32.6430000  30.9360000 -11.0770000
  30.7020000  30.3410000 -11.8200000  30.2020000  30.2000000 -12.7810000
  30.6570000  29.3850000 -11.2950000  29.9440000  31.3930000 -10.9810000
  30.6090000  31.7720000 -10.2030000  29.6660000  32.2390000 -11.6140000
  28.6840000  30.8240000 -10.3000000  27.9850000  30.4580000 -11.0550000
  28.9780000  29.9720000  -9.6840000  27.9860000  31.8710000  -9.4090000
  28.7390000  32.3890000  -8.8120000  27.4970000  32.6180000 -10.0380000
  26.9590000  31.2330000  -8.4550000  26.1920000  30.7130000  -9.0330000
  27.4690000  30.4870000  -7.8420000  26.2900000  32.2650000  -7.5270000
  27.0590000  32.9010000  -7.0840000  25.6400000  32.9070000  -8.1250000
  25.4730000  31.5650000  -6.4580000  24.7550000  30.8380000  -6.8300000
  25.6120000  31.7270000  -5.1450000  24.9910000  31.1430000  -4.4700000
  26.5250000  32.7290000  -4.4670000  26.5450000  33.6580000  -5.0420000
  26.1190000  32.9850000  -3.4860000  27.9680000  32.2060000  -4.3120000
  28.3700000  31.9920000  -5.3040000  28.5860000  33.0000000  -3.8880000
  28.1130000  30.9390000  -3.4450000  27.4700000  30.1510000  -3.8410000
  29.1420000  30.5840000  -3.5290000  27.7930000  31.1630000  -1.9540000
  28.4190000  31.9710000  -1.5710000  26.7500000  31.4670000  -1.8380000
  28.0490000  29.8890000  -1.1270000  27.3910000  29.0930000  -1.4810000
  29.0780000  29.5600000  -1.2870000  27.8190000  30.0970000   0.3800000
  28.4500000  30.9170000   0.7280000  26.7800000  30.3850000   0.5540000
  28.1410000  28.8250000   1.1870000  27.5070000  28.0070000   0.8400000
  29.1780000  28.5340000   1.0080000  27.9290000  29.0150000   2.6980000
  28.1540000  28.0880000   3.2300000  26.8940000  29.2930000   2.9080000
  28.5850000  29.7990000   3.0820000  32.9430000  25.4930000  -0.9470000
  32.6970000  24.7210000  -0.2140000  33.9360000  25.2760000  -1.3470000
  32.2200000  25.4370000  -1.7640000  32.9170000  26.8830000  -0.2890000
  33.6050000  26.8790000   0.5580000  31.9200000  27.0950000   0.1020000
  33.3460000  27.9980000  -1.2560000  34.2420000  27.6740000  -1.7890000
  33.6210000  28.8780000  -0.6700000  32.2500000  28.3970000  -2.2670000
  31.5000000  29.0090000  -1.7610000  31.7440000  27.5010000  -2.6320000
  32.8070000  29.1550000  -3.4860000  31.9790000  29.4690000  -4.1240000
  33.4080000  28.4510000  -4.0660000  33.6590000  30.3850000  -3.1110000
  34.4390000  30.0930000  -2.4040000  33.0220000  31.1140000  -2.6050000
  34.3560000  31.0590000  -4.3080000  35.0240000  31.8320000  -3.9220000
  33.6150000  31.5550000  -4.9390000  35.1640000  30.0600000  -5.1610000
  34.4810000  29.5360000  -5.8330000  35.6180000  29.3100000  -4.5100000
  36.2810000  30.7330000  -5.9750000  37.0210000  31.1330000  -5.2800000
  35.8750000  31.5820000  -6.5280000  36.9860000  29.7510000  -6.9350000
  37.2570000  28.8460000  -6.3880000  37.9250000  30.1960000  -7.2710000
  36.1700000  29.3510000  -8.1810000  35.3030000  28.7550000  -7.8870000
  36.8000000  28.7130000  -8.8040000  35.6990000  30.5730000  -8.9920000
  36.4890000  31.3270000  -8.9940000  34.8340000  31.0170000  -8.4940000
  35.3290000  30.2740000 -10.4540000  34.8710000  31.1720000 -10.8730000
  34.5850000  29.4760000 -10.4900000  36.5430000  29.9010000 -11.3250000
  36.9560000  28.9460000 -10.9960000  37.3200000  30.6590000 -11.2070000
  36.1530000  29.8040000 -12.8120000  35.7320000  30.7550000 -13.1430000
  35.3810000  29.0430000 -12.9450000  37.3160000  29.4590000 -13.7130000
  38.4400000  29.1780000 -13.3320000  36.9420000  29.5020000 -15.0110000
  37.7920000  28.8800000 -16.0190000  38.8490000  28.9990000 -15.7670000
  37.6120000  29.3820000 -16.9730000  37.4310000  27.3770000 -16.1670000
  38.0830000  26.9330000 -16.9230000  35.9490000  27.2050000 -16.5790000
  35.7370000  27.7900000 -17.4770000  35.3110000  27.5650000 -15.7680000
  35.6500000  25.8060000 -16.8360000  34.1570000  25.3210000 -17.2100000
  34.0490000  25.7190000 -18.7610000  34.6700000  24.8920000 -19.7600000
  34.0910000  23.9710000 -19.8660000  35.6820000  24.6300000 -19.4400000
  34.7100000  25.6500000 -21.1080000  33.6910000  25.8680000 -21.4320000
  35.1640000  24.9930000 -21.8510000  35.4760000  26.9520000 -21.1820000
  34.7280000  28.0640000 -20.5190000  33.7760000  28.2000000 -21.0340000
  35.3240000  28.9760000 -20.5860000  34.5580000  27.7980000 -19.4750000
  36.8290000  26.8290000 -20.5570000  37.3730000  26.0270000 -21.0600000
  36.7030000  26.5960000 -19.4980000  37.3570000  27.7760000 -20.6770000
  35.6570000  27.3200000 -22.6180000  36.2340000  26.5370000 -23.1110000
  36.1910000  28.2700000 -22.6710000  34.6750000  27.4140000 -23.0820000
  34.0920000  23.8390000 -17.0890000  33.1690000  26.1430000 -16.4630000
  37.6160000  26.7550000 -14.8700000  38.3070000  25.6100000 -14.7390000
  38.8290000  25.0020000 -15.6590000  38.4320000  25.1790000 -13.2940000
  38.7250000  24.1270000 -13.2780000  39.2320000  25.7670000 -12.8410000
  37.1270000  25.3540000 -12.4800000  36.7930000  26.3920000 -12.5310000
  36.3430000  24.7430000 -12.9320000  37.2670000  24.9620000 -10.9930000
  36.2770000  25.0040000 -10.5340000  37.6100000  23.9280000 -10.9180000
  38.2160000  25.8860000 -10.2010000  39.2290000  25.8060000 -10.6010000
  37.8910000  26.9200000 -10.3290000  38.2470000  25.5530000  -8.6970000
  37.2260000  25.5610000  -8.3100000  38.6440000  24.5440000  -8.5600000
  39.1040000  26.5560000  -7.8960000  40.0960000  26.6190000  -8.3480000
  38.6600000  27.5510000  -7.9760000  39.2690000  26.1970000  -6.4060000
  39.7590000  25.2230000  -6.3390000  39.9470000  26.9170000  -5.9450000
  37.9380000  26.1280000  -5.6790000  37.2450000  25.3930000  -6.0800000
  37.5720000  26.8290000  -4.6070000  36.5890000  26.6520000  -4.1780000
  38.3710000  27.9130000  -3.9070000  39.3300000  28.1030000  -4.3940000
  37.8060000  28.8450000  -3.9660000  38.6010000  27.6130000  -2.4120000
  38.8840000  28.5500000  -1.9280000  37.6670000  27.2910000  -1.9470000
  39.7140000  26.5850000  -2.1260000  40.6030000  26.8470000  -2.7030000
  39.9820000  26.6620000  -1.0710000  39.3270000  25.1210000  -2.4060000
  38.4660000  24.8550000  -1.7900000  39.0360000  24.9970000  -3.4510000
  40.4910000  24.1610000  -2.1110000  41.2790000  24.3180000  -2.8520000
  40.9090000  24.3910000  -1.1290000  40.0410000  22.6900000  -2.1340000
  39.3010000  22.5400000  -1.3460000  39.5560000  22.4750000  -3.0880000
  41.2040000  21.7040000  -1.9350000  41.9280000  21.8340000  -2.7420000
  41.7130000  21.9160000  -0.9920000  40.7200000  20.2470000  -1.9360000
  40.0370000  20.0680000  -1.1030000  41.5690000  19.5670000  -1.8390000
  40.2010000  20.0230000  -2.8700000  38.3630000  19.9030000   2.4310000
  37.4900000  19.4600000   2.9150000  38.8500000  20.5720000   3.1440000
  39.0640000  19.1050000   2.1770000  37.9490000  20.6800000   1.1700000
  38.8380000  21.1330000   0.7270000  37.2730000  21.4890000   1.4530000
  37.2660000  19.7870000   0.1180000  36.3990000  19.3020000   0.5720000
  37.9560000  19.0010000  -0.1970000  36.8040000  20.5930000  -1.1120000
  37.6570000  21.1150000  -1.5490000  36.0900000  21.3550000  -0.7920000
  36.1550000  19.7080000  -2.1910000  35.4630000  19.0120000  -1.7110000
  36.9250000  19.1090000  -2.6800000  35.3670000  20.5160000  -3.2410000
  34.4850000  20.9380000  -2.7550000  35.0060000  19.8300000  -4.0120000
  36.1310000  21.6700000  -3.9220000  36.4270000  22.4110000  -3.1770000
  35.4410000  22.1730000  -4.6020000  37.3680000  21.2240000  -4.7240000
  37.0700000  20.4440000  -5.4290000  38.1140000  20.7960000  -4.0510000
  37.9780000  22.4130000  -5.4940000  38.2170000  23.2120000  -4.7880000
  37.2280000  22.8130000  -6.1800000  39.2470000  22.0780000  -6.3000000
  40.0490000  21.7820000  -5.6210000  39.5750000  22.9890000  -6.8060000
  39.0200000  20.9620000  -7.3390000  38.0730000  21.1350000  -7.8550000
  38.9290000  20.0080000  -6.8160000  40.1410000  20.8470000  -8.3920000
  39.9750000  19.9350000  -8.9700000  41.1120000  20.7510000  -7.9020000
  40.1550000  22.0470000  -9.3560000  40.5030000  22.9400000  -8.8320000
  39.1280000  22.2420000  -9.6730000  41.0170000  21.8170000 -10.6110000
  40.6730000  20.9080000 -11.1070000  42.0640000  21.6740000 -10.3370000
  40.8760000  23.0260000 -11.5580000  41.4230000  23.8790000 -11.1510000
  39.8220000  23.3090000 -11.5980000  41.3250000  22.7700000 -12.9790000
  42.0760000  23.5150000 -13.5820000  40.7430000  21.6850000 -13.5300000
  40.6970000  21.5300000 -14.9840000  40.2640000  22.4310000 -15.4240000
  40.0260000  20.6950000 -15.2030000  42.0740000  21.2370000 -15.6440000
  42.7670000  22.0450000 -15.3930000  41.9260000  21.1750000 -17.1880000
  42.8690000  20.8920000 -17.6620000  41.6550000  22.1730000 -17.5430000
  40.8880000  20.2350000 -17.5810000  40.1820000  20.3160000 -19.0290000
  41.3500000  19.8480000 -20.0240000  41.7150000  18.4610000 -20.1380000
  40.8320000  17.8580000 -20.3620000  42.1320000  18.1270000 -19.1840000
  42.7730000  18.3110000 -21.2570000  43.1020000  17.2720000 -21.2840000
  43.6350000  18.9360000 -21.0210000  42.3730000  18.6560000 -22.6760000
  43.4620000  18.2220000 -23.6010000  44.3810000  18.7410000 -23.3260000
  43.1750000  18.4800000 -24.6210000  43.5920000  17.1430000 -23.5080000
  41.1160000  17.9550000 -23.0750000  40.3030000  18.3190000 -22.4460000
  41.2550000  16.8810000 -22.9390000  40.9090000  18.1810000 -24.1220000
  42.1870000  20.1270000 -22.8560000  41.3730000  20.4520000 -22.2070000
  41.9430000  20.3260000 -23.9010000  43.1130000  20.6320000 -22.5760000
  39.0800000  19.3160000 -19.0720000  39.8640000  21.7380000 -19.3280000
  42.6080000  19.9760000 -15.1480000  43.9300000  19.7570000 -15.2780000
  44.7030000  20.5440000 -15.7990000  44.3750000  18.4260000 -14.7270000
  45.3270000  18.5800000 -14.2140000  43.6500000  18.0750000 -13.9900000
  44.5480000  17.3830000 -15.8500000  43.5700000  17.1350000 -16.2690000
  45.1340000  17.8230000 -16.6600000  45.2620000  16.0950000 -15.3900000
  45.3360000  15.4140000 -16.2400000  46.2850000  16.3460000 -15.1010000
  44.5890000  15.3550000 -14.2160000  45.1880000  14.4750000 -13.9730000
  44.5930000  15.9960000 -13.3320000  43.1430000  14.9160000 -14.5140000
  42.5200000  15.7990000 -14.6700000  43.1280000  14.3440000 -15.4440000
  42.5190000  14.0530000 -13.3970000  41.4870000  13.8260000 -13.6740000
  43.0510000  13.1000000 -13.3490000  42.5240000  14.6890000 -11.9920000
  42.0130000  14.0040000 -11.3120000  43.5550000  14.7860000 -11.6430000
  41.8150000  16.0290000 -11.9710000  41.0250000  16.1400000 -12.7100000
  42.1270000  17.0620000 -11.1950000  41.5690000  17.9890000 -11.3000000
  43.1620000  17.0640000 -10.0840000  43.5570000  16.0630000  -9.8990000
  44.0000000  17.6970000 -10.3830000  42.5820000  17.6260000  -8.7700000
  43.3790000  17.6750000  -8.0250000  42.2380000  18.6480000  -8.9420000
  41.4170000  16.7830000  -8.2100000  40.6320000  16.7120000  -8.9650000
  41.7680000  15.7680000  -8.0110000  40.8110000  17.3760000  -6.9230000
  41.5630000  17.3800000  -6.1310000  40.5220000  18.4120000  -7.1090000
  39.5730000  16.5790000  -6.4710000  38.9110000  16.4550000  -7.3310000
  39.8900000  15.5810000  -6.1610000  38.7550000  17.2330000  -5.3400000
  38.3700000  18.1930000  -5.6900000  37.8850000  16.6070000  -5.1310000
  39.5270000  17.4600000  -4.0280000  40.3780000  18.1170000  -4.2190000
  38.8740000  17.9810000  -3.3250000  40.0140000  16.1570000  -3.3700000
  40.5030000  16.3770000  -2.4190000  40.7300000  15.6390000  -4.0120000
  39.1710000  15.4900000  -3.1770000  -1.5510000  19.5800000  -1.9750000
  -2.2430000  18.9250000  -1.4410000  -0.8260000  18.9570000  -2.5040000
  -2.1150000  20.1560000  -2.7110000  -0.8290000  20.5100000  -0.9860000
  -0.2210000  19.9000000  -0.3150000  -1.5670000  21.0330000  -0.3740000
   0.0630000  21.5450000  -1.6960000  -0.5680000  22.2670000  -2.2190000
   0.6710000  21.0390000  -2.4480000   0.9970000  22.2750000  -0.7120000
   1.6230000  21.5320000  -0.2130000   0.4110000  22.7750000   0.0620000
   1.9160000  23.2930000  -1.4110000   2.3020000  22.8530000  -2.3330000
   2.7770000  23.4860000  -0.7680000   1.2240000  24.6380000  -1.7090000
   1.0170000  25.1410000  -0.7610000   0.2640000  24.4750000  -2.2030000
   2.1050000  25.5500000  -2.5840000   3.1420000  25.4700000  -2.2480000
   1.8080000  26.5900000  -2.4380000   1.9820000  25.2100000  -4.0850000
   1.1890000  25.8290000  -4.5080000   1.6550000  24.1760000  -4.2100000
   3.2770000  25.4430000  -4.8900000   3.6470000  26.4480000  -4.6760000
   3.0300000  25.4260000  -5.9540000   4.4050000  24.4220000  -4.6030000
   4.6410000  24.4630000  -3.5380000   5.3100000  24.7420000  -5.1240000
   4.0990000  22.9490000  -4.9690000   3.0520000  22.7160000  -4.7640000
   4.6840000  22.3130000  -4.3010000   4.4370000  22.5180000  -6.4140000
   4.1060000  21.4860000  -6.5450000   5.5210000  22.5170000  -6.5380000
   3.8130000  23.3830000  -7.5270000   4.2610000  24.3780000  -7.4960000
   2.7410000  23.4900000  -7.3530000   4.0430000  22.7750000  -8.9230000
   3.4780000  21.8440000  -9.0050000   5.1000000  22.5270000  -9.0340000
   3.6210000  23.7250000 -10.0610000   4.1310000  24.6850000  -9.9590000
   2.5480000  23.9160000  -9.9980000   3.9500000  23.1540000 -11.4220000
   5.0280000  22.6680000 -11.7150000   2.9180000  23.2460000 -12.2860000
   3.0840000  22.7250000 -13.6420000   4.0450000  23.0440000 -14.0520000
   2.2900000  23.1460000 -14.2650000   2.9700000  21.1780000 -13.6710000
   3.6940000  20.7680000 -12.9630000   3.2640000  20.6110000 -15.0830000
   3.0140000  19.5470000 -15.1050000   4.3280000  20.7200000 -15.3070000
   2.4980000  21.3120000 -16.1010000   2.5230000  20.8440000 -17.6460000
   3.9800000  21.3270000 -18.1310000   4.2710000  22.7200000 -18.3650000
   5.3330000  22.8920000 -18.1700000   3.6950000  23.3320000 -17.6660000
   3.9300000  23.1100000 -19.8250000   4.0710000  24.1860000 -19.9390000
   2.8790000  22.8870000 -20.0160000   4.7090000  22.4680000 -20.9490000
   4.3070000  23.1110000 -22.2360000   3.2360000  22.9640000 -22.3800000
   4.8640000  22.6460000 -23.0510000   4.5370000  24.1770000 -22.1840000
   6.1800000  22.6600000 -20.7680000   6.4920000  22.1170000 -19.8750000
   6.3850000  23.7260000 -20.6600000   6.6930000  22.2590000 -21.6430000
   4.4190000  21.0080000 -21.0600000   4.7540000  20.5270000 -20.1390000
   4.9580000  20.6050000 -21.9180000   3.3430000  20.8780000 -21.1820000
   2.4880000  19.3580000 -17.7050000   1.4870000  21.6130000 -18.3890000
   1.6170000  20.8060000 -13.2780000   1.4180000  19.6210000 -12.6740000
   2.3150000  18.8450000 -12.3940000  -0.0520000  19.3710000 -12.4110000
  -0.5300000  20.3120000 -12.1320000  -0.5110000  19.0470000 -13.3480000
  -0.3230000  18.3150000 -11.3180000  -1.3890000  18.0800000 -11.3280000
   0.2080000  17.3900000 -11.5550000   0.0640000  18.7910000  -9.9050000
   1.1410000  18.9660000  -9.8590000  -0.4330000  19.7410000  -9.7000000
  -0.3270000  17.7610000  -8.8280000  -1.4080000  17.6040000  -8.8470000
   0.1390000  16.8030000  -9.0680000   0.1030000  18.1770000  -7.4090000
  -0.0640000  17.3350000  -6.7350000   1.1750000  18.3840000  -7.4070000
  -0.6690000  19.4000000  -6.8680000  -0.4760000  20.2730000  -7.4960000
  -1.7390000  19.1900000  -6.9250000  -0.3150000  19.7400000  -5.4070000
  -1.0350000  20.4740000  -5.0390000  -0.4380000  18.8490000  -4.7890000
   1.0780000  20.3230000  -5.2670000   1.1400000  21.3950000  -5.4350000
   2.1820000  19.6630000  -4.9280000   3.1150000  20.2130000  -4.8420000
   2.3020000  18.1720000  -4.6840000   1.3300000  17.6810000  -4.6090000
   2.8200000  17.7330000  -5.5390000   3.1370000  17.8640000  -3.4280000
   3.3760000  16.7980000  -3.4120000   4.0830000  18.4060000  -3.4870000
   2.4120000  18.2280000  -2.1190000   2.0680000  19.2630000  -2.1680000
   1.5320000  17.5920000  -2.0050000   3.3300000  18.0710000  -0.8950000
   3.7390000  17.0580000  -0.8690000   4.1700000  18.7600000  -1.0040000
   2.5820000  18.3510000   0.4220000   2.0640000  19.3090000   0.3510000
   1.8190000  17.5830000   0.5630000   3.5000000  18.3740000   1.6590000
   2.8760000  18.4280000   2.5540000   4.0640000  17.4410000   1.7140000
   4.4740000  19.5700000   1.6600000   5.1490000  19.5040000   0.8040000
   3.9080000  20.4990000   1.5620000   5.3130000  19.6300000   2.9430000
   5.9780000  20.4960000   2.9100000   5.9210000  18.7290000   3.0470000
   4.6690000  19.7220000   3.8200000 -39.4990000 -18.7260000  -2.7130000
 -39.2830000 -19.0510000  -1.6930000 -38.7030000 -18.0490000  -3.0310000
 -39.4890000 -19.6030000  -3.3630000 -40.8710000 -18.0320000  -2.7700000
 -40.8710000 -17.1700000  -2.0990000 -41.6270000 -18.7270000  -2.3990000
 -41.2620000 -17.5830000  -4.1910000 -42.3130000 -17.2890000  -4.1920000
 -41.1660000 -18.4360000  -4.8660000 -40.4170000 -16.3990000  -4.7070000
 -39.3570000 -16.6590000  -4.6700000 -40.5640000 -15.5480000  -4.0380000
 -40.7710000 -15.9650000  -6.1430000 -40.2520000 -15.0300000  -6.3650000
 -41.8430000 -15.7650000  -6.2050000 -40.3660000 -17.0180000  -7.1930000
 -40.8850000 -17.9580000  -6.9920000 -39.2960000 -17.2180000  -7.0980000
 -40.6610000 -16.6030000  -8.6460000 -40.2940000 -17.3980000  -9.2990000
 -40.1030000 -15.6990000  -8.8960000 -42.1600000 -16.3780000  -8.9250000
 -42.4710000 -15.4100000  -8.5260000 -42.7390000 -17.1430000  -8.4040000
 -42.4780000 -16.4560000 -10.4300000 -42.0860000 -17.4000000 -10.8150000
 -41.9670000 -15.6510000 -10.9610000 -43.9900000 -16.3960000 -10.7200000
 -44.3600000 -15.3850000 -10.5370000 -44.5110000 -17.0640000 -10.0310000
 -44.3110000 -16.8230000 -12.1650000 -43.7910000 -17.7600000 -12.3760000
 -43.9210000 -16.0790000 -12.8630000 -45.8140000 -17.0550000 -12.4170000
 -46.1690000 -17.8280000 -11.7320000 -45.9450000 -17.4530000 -13.4250000
 -46.7010000 -15.8060000 -12.2500000 -46.6570000 -15.4670000 -11.2130000
 -47.7370000 -16.0940000 -12.4420000 -46.3390000 -14.6280000 -13.1760000
 -45.3760000 -14.2090000 -12.8780000 -47.0870000 -13.8460000 -13.0290000
 -46.2880000 -15.0080000 -14.6720000 -47.1810000 -15.5740000 -14.9450000
 -45.4270000 -15.6520000 -14.8610000 -46.1870000 -13.8000000 -15.5810000
 -46.3010000 -12.6420000 -15.2000000 -45.9540000 -14.1650000 -16.8640000
 -45.6430000 -13.1190000 -17.8350000 -46.1830000 -12.2000000 -17.5910000
 -45.9980000 -13.4500000 -18.8150000 -44.1170000 -12.8240000 -17.9450000
 -44.0180000 -11.8820000 -18.4910000 -43.3500000 -13.9290000 -18.7270000
 -42.3700000 -13.5400000 -19.0180000 -43.8970000 -14.1650000 -19.6430000
 -43.1800000 -15.1540000 -17.9560000 -41.7130000 -15.7010000 -17.5280000
 -41.2210000 -16.3990000 -18.8910000 -41.7380000 -17.6860000 -19.2700000
 -42.7990000 -17.7440000 -19.0130000 -41.2030000 -18.4580000 -18.7110000
 -41.5420000 -17.8890000 -20.7910000 -41.8660000 -18.8990000 -21.0480000
 -40.4810000 -17.8030000 -21.0310000 -42.2710000 -16.9640000 -21.7400000
 -41.6800000 -15.5920000 -21.7310000 -41.7650000 -15.1840000 -20.7230000
 -42.2240000 -14.9690000 -22.4430000 -40.6300000 -15.6650000 -22.0150000
 -42.1420000 -17.5010000 -23.1270000 -42.5920000 -18.4930000 -23.1650000
 -41.0820000 -17.5560000 -23.3820000 -42.6570000 -16.8260000 -23.8120000
 -43.7270000 -16.8750000 -21.4080000 -44.1520000 -17.8790000 -21.4240000
 -44.2160000 -16.2420000 -22.1500000 -43.8330000 -16.4440000 -20.4110000
 -40.7990000 -14.5570000 -17.2540000 -41.8680000 -16.7570000 -16.4920000
 -43.5610000 -12.6670000 -16.6120000 -42.4150000 -11.9820000 -16.4350000
 -41.8440000 -11.3700000 -17.3250000 -41.9300000 -11.9670000 -14.9970000
 -40.8520000 -12.1430000 -14.9900000 -42.1130000 -10.9620000 -14.6100000
 -42.6170000 -13.0080000 -14.0800000 -43.6980000 -12.8620000 -14.1140000
 -42.4140000 -14.0120000 -14.4570000 -42.1800000 -12.9280000 -12.6060000
 -42.7280000 -13.6930000 -12.0530000 -41.1170000 -13.1620000 -12.5200000
 -42.4530000 -11.5420000 -11.9870000 -41.7660000 -10.8170000 -12.4280000
 -43.4630000 -11.2190000 -12.2470000 -42.2750000 -11.4820000 -10.4600000
 -41.2410000 -11.7330000 -10.2170000 -42.4380000 -10.4520000 -10.1350000
 -43.2070000 -12.4060000  -9.6540000 -42.9100000 -13.4460000  -9.8010000
 -43.0790000 -12.1840000  -8.5930000 -44.6890000 -12.2400000 -10.0330000
 -44.9470000 -11.1790000 -10.0460000 -44.8440000 -12.6190000 -11.0460000
 -45.5750000 -13.0150000  -9.0850000 -45.4840000 -14.0960000  -9.1460000
 -46.4630000 -12.4820000  -8.2540000 -47.0680000 -13.1400000  -7.6360000
 -46.6790000 -11.0010000  -8.0150000 -45.7750000 -10.4240000  -8.2170000
 -47.4550000 -10.6470000  -8.6970000 -47.1560000 -10.7090000  -6.5810000
 -47.5390000  -9.6870000  -6.5560000 -47.9990000 -11.3610000  -6.3440000
 -46.0860000 -10.8410000  -5.4770000 -45.2370000 -10.1930000  -5.7040000
 -46.5330000 -10.4660000  -4.5540000 -45.5890000 -12.2860000  -5.2630000
 -46.4410000 -12.9670000  -5.3090000 -44.9230000 -12.5590000  -6.0840000
 -44.8360000 -12.5180000  -3.9380000 -44.5530000 -13.5720000  -3.8890000
 -43.9070000 -11.9450000  -3.9470000 -45.6320000 -12.1500000  -2.6680000
 -45.0770000 -12.4950000  -1.7940000 -45.6860000 -11.0620000  -2.5900000
 -47.0680000 -12.7130000  -2.6090000 -47.5270000 -12.3920000  -1.6720000
 -47.6640000 -12.2770000  -3.4130000 -47.1500000 -14.2460000  -2.7050000
 -48.1920000 -14.5670000  -2.6410000 -46.5980000 -14.7100000  -1.8850000
 -46.7390000 -14.6070000  -3.6500000  14.3860000 -44.6750000  -1.2420000
  14.8680000 -45.3150000  -0.5000000  13.3250000 -44.6070000  -0.9920000
  14.8280000 -43.6790000  -1.1730000  14.5820000 -45.2600000  -2.6530000
  14.1570000 -46.2650000  -2.6860000  15.6530000 -45.3550000  -2.8430000
  13.9670000 -44.4110000  -3.7820000  14.1830000 -44.8980000  -4.7350000
  14.4590000 -43.4360000  -3.8000000  12.4440000 -44.2200000  -3.6530000
  12.2140000 -43.6480000  -2.7510000  11.9720000 -45.1990000  -3.5460000
  11.8160000 -43.5150000  -4.8690000  10.7360000 -43.4620000  -4.7140000
  11.9810000 -44.1390000  -5.7490000  12.3560000 -42.0910000  -5.1230000
  13.4220000 -42.1280000  -5.3590000  12.2460000 -41.5010000  -4.2110000
  11.6110000 -41.3680000  -6.2630000  11.8700000 -40.3070000  -6.2520000
  10.5370000 -41.4400000  -6.0810000  11.9460000 -41.9510000  -7.6490000
  11.9670000 -43.0400000  -7.5760000  12.9450000 -41.6270000  -7.9480000
  10.9200000 -41.5470000  -8.7260000  10.8800000 -40.4590000  -8.8050000
   9.9310000 -41.8820000  -8.4040000  11.2100000 -42.1480000 -10.1170000
  12.0420000 -41.6130000 -10.5790000  10.3330000 -41.9940000 -10.7490000
  11.5500000 -43.6500000 -10.0620000  10.8820000 -44.1440000  -9.3540000
  12.5690000 -43.7660000  -9.6850000  11.4320000 -44.3720000 -11.4150000
  11.9490000 -43.8060000 -12.1920000  10.3760000 -44.4290000 -11.6900000
  12.0290000 -45.7890000 -11.3250000  11.8170000 -46.2080000 -10.3390000
  13.1160000 -45.7270000 -11.4150000  11.4780000 -46.7650000 -12.3770000
  10.4130000 -46.9180000 -12.1880000  11.9680000 -47.7310000 -12.2380000
  11.6570000 -46.3080000 -13.8370000  12.7020000 -46.0460000 -14.0170000
  11.0560000 -45.4200000 -14.0400000  11.2500000 -47.4020000 -14.7940000
  10.3310000 -48.1740000 -14.5910000  12.0460000 -47.4480000 -15.8820000
  11.7600000 -48.4420000 -16.9130000  11.2900000 -49.3310000 -16.4850000
  12.7130000 -48.7540000 -17.3480000  10.8730000 -47.8500000 -18.0400000
  10.5440000 -48.6610000 -18.6950000  11.6630000 -46.8470000 -18.9080000
  12.6360000 -47.2700000 -19.1730000  11.8260000 -45.9260000 -18.3430000
  10.9310000 -46.5790000 -20.1380000  10.3850000 -45.1060000 -20.5070000
   9.1950000 -44.8730000 -19.4500000   8.3970000 -43.6740000 -19.4790000
   7.4470000 -43.8710000 -18.9770000   8.1830000 -43.4080000 -20.5170000
   9.1420000 -42.5130000 -18.7750000   8.5640000 -41.5970000 -18.9090000
  10.1120000 -42.3720000 -19.2530000   9.4170000 -42.6170000 -17.2940000
   8.1460000 -42.7580000 -16.5220000   7.4930000 -41.9200000 -16.7700000
   8.3810000 -42.7480000 -15.4570000   7.6730000 -43.7010000 -16.8000000
  10.3250000 -43.7590000 -16.9640000  11.2350000 -43.6470000 -17.5560000
   9.8250000 -44.6900000 -17.2330000  10.5530000 -43.7370000 -15.8980000
  10.0900000 -41.3590000 -16.8530000  11.0240000 -41.2550000 -17.4070000
  10.2910000 -41.4240000 -15.7820000   9.4310000 -40.5160000 -17.0620000
  11.4710000 -44.1220000 -20.2470000   9.7920000 -45.1740000 -21.8720000
   9.7220000 -47.1550000 -17.4820000   8.5940000 -47.8480000 -17.2370000
   8.4840000 -49.0560000 -17.3700000   7.4630000 -46.9550000 -16.7850000
   7.3650000 -46.1320000 -17.4950000   6.5300000 -47.5230000 -16.8090000
   7.6990000 -46.3930000 -15.3690000   7.8760000 -47.2180000 -14.6770000
   8.5940000 -45.7680000 -15.3770000   6.5010000 -45.5660000 -14.8640000
   6.1780000 -44.8820000 -15.6520000   5.6600000 -46.2340000 -14.6660000
   6.8150000 -44.7320000 -13.6040000   7.5430000 -43.9610000 -13.8630000
   5.9050000 -44.2140000 -13.2950000   7.3650000 -45.5300000 -12.4060000
   8.3380000 -45.9530000 -12.6650000   7.5280000 -44.8400000 -11.5760000
   6.4170000 -46.6520000 -11.9450000   5.4180000 -46.2360000 -11.7990000
   6.3390000 -47.4050000 -12.7320000   6.8650000 -47.3280000 -10.6350000
   6.9270000 -46.5700000  -9.8510000   6.0920000 -48.0400000 -10.3380000
   8.1750000 -48.0690000 -10.8150000   8.2420000 -48.6600000 -11.7250000
   9.2250000 -48.0280000 -10.0000000  10.1130000 -48.5960000 -10.2630000
   9.3190000 -47.2810000  -8.6860000  10.0120000 -46.4440000  -8.7900000
   8.3530000 -46.8760000  -8.3770000   9.8420000 -48.2180000  -7.5860000
   9.1660000 -49.0740000  -7.5150000  10.8260000 -48.5980000  -7.8680000
   9.9380000 -47.5140000  -6.2190000  10.6350000 -46.6780000  -6.2980000
   8.9660000 -47.0930000  -5.9560000  10.4160000 -48.4530000  -5.0940000
  11.4360000 -48.7680000  -5.3210000  10.4720000 -47.8880000  -4.1610000
   9.5550000 -49.7190000  -4.8890000   9.7130000 -50.3780000  -5.7460000
   9.9280000 -50.2640000  -4.0190000   8.0320000 -49.5090000  -4.7280000
   7.6440000 -48.8590000  -5.5160000   7.5580000 -50.4800000  -4.8800000
   7.5740000 -48.9960000  -3.3490000   6.4990000 -49.1710000  -3.2670000
   8.0520000 -49.5990000  -2.5740000   7.8260000 -47.5050000  -3.0650000
   7.3160000 -47.2120000  -2.1450000   7.4440000 -46.8880000  -3.8810000
   8.8910000 -47.3000000  -2.9330000  30.3110000  14.6490000   0.5880000
  30.9240000  14.7210000   1.4890000  29.7020000  15.5530000   0.5220000
  30.9730000  14.6100000  -0.2800000  29.4300000  13.3910000   0.6540000
  28.7980000  13.4410000   1.5440000  30.0780000  12.5190000   0.7610000
  28.5500000  13.1870000  -0.5910000  28.0320000  12.2280000  -0.5100000
  29.2040000  13.1270000  -1.4630000  27.5070000  14.3050000  -0.7840000
  28.0210000  15.2630000  -0.8820000  26.8720000  14.3670000   0.1030000
  26.6210000  14.1070000  -2.0260000  25.9800000  14.9840000  -2.1400000
  25.9680000  13.2440000  -1.8830000  27.4660000  13.9170000  -3.2970000
  27.8180000  12.8840000  -3.3490000  28.3470000  14.5570000  -3.2230000
  26.7230000  14.2660000  -4.5930000  26.3550000  15.2920000  -4.5250000
  25.8530000  13.6150000  -4.7020000  27.6420000  14.1420000  -5.8240000
  28.0160000  13.1200000  -5.9110000  28.5040000  14.7990000  -5.6940000
  26.9000000  14.5330000  -7.1120000  26.3450000  15.4540000  -6.9240000
  26.1740000  13.7550000  -7.3560000  27.8220000  14.7610000  -8.3230000
  28.3520000  13.8400000  -8.5740000  28.5660000  15.5210000  -8.0760000
  26.9850000  15.2330000  -9.5250000  26.3520000  16.0610000  -9.2000000
  26.3260000  14.4210000  -9.8370000  27.8140000  15.7080000 -10.7300000
  28.3710000  14.8700000 -11.1560000  28.5350000  16.4570000 -10.3970000
  26.8920000  16.3300000 -11.7970000  26.2880000  17.1080000 -11.3270000
  26.2040000  15.5660000 -12.1660000  27.6490000  16.9460000 -12.9850000
  28.1980000  16.1640000 -13.5140000  28.3750000  17.6740000 -12.6170000
  26.6680000  17.6400000 -13.9510000  26.1190000  18.4210000 -13.4210000
  25.9400000  16.9140000 -14.3180000  27.3770000  18.2620000 -15.1270000
  27.8730000  19.3720000 -15.1040000  27.3920000  17.4400000 -16.1950000
  27.9830000  17.8750000 -17.4600000  27.4570000  18.7610000 -17.8250000
  27.8230000  17.0650000 -18.1760000  29.5040000  18.1880000 -17.3430000
  29.5970000  19.1900000 -16.9170000  30.2410000  18.1760000 -18.7070000
  31.3130000  18.0420000 -18.5380000  30.0910000  19.1390000 -19.2020000
  29.7480000  17.1280000 -19.5860000  30.4930000  16.7350000 -20.9650000
  31.2860000  15.3890000 -20.5760000  30.5940000  14.1270000 -20.4260000
  31.3090000  13.3140000 -20.5730000  29.8210000  14.0360000 -21.1930000
  29.9600000  14.0270000 -19.0170000  29.2650000  13.1860000 -19.0000000
  29.3900000  14.9360000 -18.8180000  30.8730000  13.8280000 -17.8320000
  31.9380000  14.8710000 -17.7590000  32.5730000  14.7740000 -18.6400000
  32.5230000  14.7230000 -16.8490000  31.4540000  15.8490000 -17.7620000
  30.0550000  13.9070000 -16.5850000  29.2870000  13.1320000 -16.6210000
  29.5930000  14.8940000 -16.5340000  30.7080000  13.7490000 -15.7250000
  31.5220000  12.4830000 -17.8850000  30.7430000  11.7200000 -17.9300000
  32.1260000  12.3520000 -16.9860000  32.1540000  12.4330000 -18.7730000
  29.4560000  16.4150000 -21.9840000  31.5040000  17.7800000 -21.2890000
  30.1200000  17.2170000 -16.4480000  31.0570000  17.6620000 -15.5880000
  31.6380000  18.7280000 -15.6970000  31.2850000  16.6810000 -14.4640000
  30.3960000  16.0540000 -14.3630000  32.1190000  16.0250000 -14.7240000
  31.5600000  17.3950000 -13.1240000  32.5230000  17.9060000 -13.1780000
  30.7930000  18.1540000 -12.9560000  31.5670000  16.4140000 -11.9380000
  30.5650000  16.0000000 -11.8080000  32.2320000  15.5800000 -12.1710000
  32.0340000  17.0510000 -10.6150000  32.0080000  16.2820000  -9.8390000
  33.0750000  17.3610000 -10.7200000  31.1960000  18.2590000 -10.1470000
  31.2790000  19.0730000 -10.8690000  30.1440000  17.9710000 -10.0880000
  31.6760000  18.7520000  -8.7680000  31.6260000  17.9190000  -8.0630000
  32.7280000  19.0350000  -8.8440000  30.8900000  19.9520000  -8.1960000
  31.3240000  20.2380000  -7.2360000  31.0240000  20.8080000  -8.8610000
  29.4060000  19.6870000  -8.0270000  28.7630000  20.2330000  -8.7110000
  28.8550000  18.9120000  -7.0980000  27.7720000  18.8260000  -7.0530000
  29.6090000  18.0560000  -6.1000000  29.5110000  17.0100000  -6.3980000
  30.6730000  18.3000000  -6.0950000  29.0530000  18.2030000  -4.6720000
  29.2590000  19.2080000  -4.2990000  27.9680000  18.0810000  -4.6960000
  29.6440000  17.1530000  -3.7090000  29.1730000  17.2590000  -2.7290000
  29.3690000  16.1650000  -4.0840000  31.1780000  17.1790000  -3.5490000
  31.4660000  16.3740000  -2.8710000  31.6460000  16.9570000  -4.5100000
  31.7480000  18.5050000  -3.0120000  32.8350000  18.4160000  -2.9600000
  31.5250000  19.3090000  -3.7160000  31.2080000  18.8650000  -1.6130000
  30.1370000  19.0690000  -1.6720000  31.3390000  18.0060000  -0.9520000
  31.9170000  20.0790000  -0.9880000  31.5590000  20.2070000   0.0360000
  32.9900000  19.8810000  -0.9340000  31.6780000  21.3880000  -1.7610000
  32.1770000  22.2190000  -1.2590000  30.6100000  21.6080000  -1.8130000
  32.0700000  21.3210000  -2.7780000 -28.8360000 -37.2970000  -2.4190000
 -28.2710000 -37.2250000  -1.4880000 -29.8760000 -37.0330000  -2.2190000
 -28.4320000 -36.5690000  -3.1260000 -28.7480000 -38.7170000  -2.9970000
 -29.2410000 -38.7310000  -3.9720000 -29.3000000 -39.3950000  -2.3430000
 -27.3040000 -39.2340000  -3.1500000 -27.3370000 -40.2280000  -3.6030000
 -26.8540000 -39.3420000  -2.1610000 -26.4220000 -38.3120000  -4.0120000
 -26.3430000 -37.3390000  -3.5220000 -26.9030000 -38.1600000  -4.9800000
 -24.9980000 -38.8600000  -4.2210000 -25.0400000 -39.7850000  -4.8010000
 -24.5680000 -39.1070000  -3.2480000 -24.0710000 -37.8480000  -4.9230000
 -23.0550000 -38.2490000  -4.9250000 -24.0500000 -36.9230000  -4.3430000
 -24.4810000 -37.5180000  -6.3710000 -25.5030000 -37.1350000  -6.3870000
 -24.4660000 -38.4350000  -6.9630000 -23.5390000 -36.4770000  -7.0090000
 -22.5090000 -36.8250000  -6.9050000 -23.6150000 -35.5310000  -6.4700000
 -23.8230000 -36.2480000  -8.5050000 -23.8160000 -37.2160000  -9.0100000
 -23.0060000 -35.6610000  -8.9300000 -25.1510000 -35.5230000  -8.7970000
 -25.0900000 -34.5060000  -8.4030000 -25.9770000 -36.0190000  -8.2830000
 -25.4640000 -35.4610000 -10.3050000 -24.5820000 -35.1110000 -10.8470000
 -26.2560000 -34.7270000 -10.4680000 -25.9280000 -36.8170000 -10.8760000
 -26.8540000 -37.1090000 -10.3760000 -25.1850000 -37.5890000 -10.6620000
 -26.1640000 -36.7750000 -12.3970000 -25.2090000 -36.6180000 -12.9040000
 -26.8070000 -35.9260000 -12.6370000 -26.8170000 -38.0770000 -12.9080000
 -27.8170000 -38.1650000 -12.4790000 -26.2390000 -38.9300000 -12.5460000
 -26.9100000 -38.1670000 -14.4470000 -27.4180000 -39.0890000 -14.7370000
 -25.9020000 -38.2060000 -14.8630000 -27.6470000 -36.9950000 -15.0470000
 -28.7910000 -36.6820000 -14.7630000 -26.8690000 -36.3090000 -15.9060000
 -27.3110000 -34.9890000 -16.3390000 -27.7770000 -34.4680000 -15.4990000
 -28.0410000 -35.0880000 -17.1460000 -26.0910000 -34.1510000 -16.7950000
 -26.4340000 -33.1300000 -16.9810000 -25.4820000 -34.7350000 -18.0910000
 -26.1330000 -34.4970000 -18.9360000 -25.4140000 -35.8220000 -17.9920000
 -24.1500000 -34.2070000 -18.3350000 -23.3190000 -34.5730000 -19.6680000
 -22.9880000 -36.1370000 -19.4740000 -23.8040000 -37.1520000 -20.0940000
 -23.6430000 -37.1110000 -21.1740000 -24.8630000 -36.9650000 -19.8940000
 -23.3780000 -38.5380000 -19.5570000 -22.2960000 -38.6290000 -19.6540000
 -23.8380000 -39.3080000 -20.1780000 -23.7180000 -38.9020000 -18.1280000
 -23.1200000 -37.9480000 -17.1420000 -22.0400000 -37.9230000 -17.2930000
 -23.3580000 -38.2810000 -16.1310000 -23.5350000 -36.9540000 -17.3190000
 -25.2000000 -38.9600000 -17.9260000 -25.6250000 -39.6460000 -18.6600000
 -25.6200000 -37.9610000 -18.0540000 -25.4020000 -39.3220000 -16.9170000
 -23.1660000 -40.2640000 -17.8430000 -23.6320000 -40.9770000 -18.5240000
 -23.3940000 -40.5250000 -16.8090000 -22.0860000 -40.2450000 -17.9960000
 -24.2110000 -34.4020000 -20.8480000 -22.0330000 -33.8250000 -19.6330000
 -25.0920000 -34.1830000 -15.7340000 -24.4150000 -33.0630000 -15.4180000
 -24.7250000 -31.9420000 -15.7890000 -23.2310000 -33.3810000 -14.5290000
 -23.5690000 -34.0230000 -13.7130000 -22.5160000 -33.9590000 -15.1190000
 -22.5390000 -32.1280000 -13.9510000 -22.2890000 -31.4420000 -14.7620000
 -23.2340000 -31.6140000 -13.2840000 -21.2480000 -32.4890000 -13.1920000
 -21.4770000 -33.1920000 -12.3890000 -20.5730000 -33.0060000 -13.8780000
 -20.5070000 -31.2620000 -12.6210000 -19.5550000 -31.5930000 -12.2010000
 -20.2690000 -30.5820000 -13.4410000 -21.2780000 -30.4800000 -11.5370000
 -20.6780000 -29.6150000 -11.2460000 -22.2130000 -30.0940000 -11.9490000
 -21.5740000 -31.3230000 -10.2810000 -22.2170000 -32.1650000 -10.5450000
 -20.6370000 -31.7310000  -9.8970000 -22.2610000 -30.5080000  -9.1720000
 -21.6180000 -29.6620000  -8.9190000 -23.2030000 -30.1050000  -9.5470000
 -22.4550000 -31.3660000  -7.9390000 -21.5660000 -31.9080000  -7.6260000
 -23.5690000 -31.5120000  -7.2280000 -23.5500000 -32.1670000  -6.3610000
 -24.9130000 -30.8560000  -7.4800000 -24.9500000 -30.3680000  -8.4560000
 -25.6820000 -31.6310000  -7.4930000 -25.2830000 -29.8230000  -6.3930000
 -24.6380000 -28.9460000  -6.4830000 -26.3010000 -29.4810000  -6.5910000
 -25.2270000 -30.3630000  -4.9460000 -26.0290000 -29.8950000  -4.3710000
 -25.4190000 -31.4370000  -4.9550000 -23.8820000 -30.0770000  -4.2410000
 -23.0580000 -30.3910000  -4.8850000 -23.7770000 -29.0010000  -4.0940000
 -23.7240000 -30.7930000  -2.8870000 -23.7770000 -31.8720000  -3.0440000
 -22.7270000 -30.5740000  -2.4970000 -24.7710000 -30.3810000  -1.8360000
 -24.7440000 -29.2980000  -1.7000000 -25.7700000 -30.6460000  -2.1900000
 -24.5170000 -31.0700000  -0.4840000 -24.4680000 -32.1510000  -0.6300000
 -23.5490000 -30.7490000  -0.0930000 -25.6120000 -30.7520000   0.5450000
 -25.3560000 -31.1820000   1.5160000 -26.5690000 -31.1660000   0.2220000
 -25.7250000 -29.6730000   0.6660000  43.0160000   4.1780000   0.6450000
  42.5780000   3.3230000   1.1650000  42.2790000   4.5560000  -0.0670000
  43.2250000   4.9570000   1.3810000  44.3090000   3.7550000  -0.0710000
  44.0770000   2.9780000  -0.8030000  44.9850000   3.3120000   0.6640000
  45.0370000   4.9170000  -0.7770000  45.9580000   4.5340000  -1.2210000
  45.3280000   5.6640000  -0.0360000  44.1910000   5.5890000  -1.8740000
  43.3360000   6.0930000  -1.4180000  43.8010000   4.8200000  -2.5430000
  44.9950000   6.6100000  -2.7020000  45.8410000   6.1050000  -3.1740000
  45.4000000   7.3820000  -2.0450000  44.1170000   7.2660000  -3.7850000
  43.3680000   7.8950000  -3.3000000  43.5830000   6.4920000  -4.3390000
  44.9170000   8.1220000  -4.7810000  45.6460000   7.4900000  -5.2920000
  45.4610000   8.8970000  -4.2390000  43.9940000   8.7730000  -5.8260000
  43.2410000   9.3720000  -5.3110000  43.4700000   7.9850000  -6.3720000
  44.7600000   9.6720000  -6.8150000  45.4980000   9.0790000  -7.3600000
  45.3090000  10.4260000  -6.2480000  43.8240000  10.3920000  -7.8070000
  44.3920000  11.1520000  -8.3470000  43.0580000  10.9220000  -7.2370000
  43.1310000   9.4650000  -8.8260000  42.3290000  10.0270000  -9.3090000
  42.6670000   8.6200000  -8.3130000  44.0750000   8.9450000  -9.9230000
  44.9160000   8.4120000  -9.4740000  44.4790000   9.8020000 -10.4660000
  43.3560000   8.0200000 -10.9230000  42.3680000   8.4300000 -11.1440000
  43.2010000   7.0400000 -10.4670000  44.1200000   7.8630000 -12.2500000
  44.1490000   8.8330000 -12.7510000  43.5590000   7.1820000 -12.8940000
  45.5600000   7.3350000 -12.0920000  45.5300000   6.3590000 -11.6020000
  46.1250000   8.0100000 -11.4460000  46.3150000   7.1880000 -13.4040000
  47.4480000   6.7370000 -13.4610000  45.6040000   7.5420000 -14.5030000
  46.0960000   7.1180000 -15.8110000  47.1660000   7.3270000 -15.8870000
  45.5830000   7.6890000 -16.5890000  45.8280000   5.6050000 -16.0330000
  46.5500000   5.0270000 -15.4500000  46.0080000   5.2050000 -17.5160000
  46.0730000   4.1150000 -17.5680000  46.9380000   5.6240000 -17.9070000
  44.8860000   5.6450000 -18.3390000  44.7560000   5.2090000 -19.8940000
  45.0410000   6.5800000 -20.6800000  46.3250000   7.2220000 -20.5920000
  47.1040000   6.5180000 -20.8950000  46.5060000   7.5230000 -19.5570000
  46.3510000   8.4510000 -21.5280000  46.2230000   8.1240000 -22.5610000
  47.3310000   8.9220000 -21.4350000  45.3460000   9.5540000 -21.2990000
  43.9730000   9.1510000 -21.7280000  44.0110000   8.8510000 -22.7760000
  43.2980000   9.9980000 -21.5970000  43.6510000   8.3090000 -21.1120000
  45.3090000   9.9740000 -19.8660000  46.3170000  10.2760000 -19.5790000
  44.9840000   9.1220000 -19.2660000  44.6150000  10.8090000 -19.7630000
  45.7490000  10.7330000 -22.1190000  46.7400000  11.0540000 -21.7950000
  45.0220000  11.5320000 -21.9660000  45.7690000  10.4350000 -23.1680000
  45.8310000   4.2350000 -20.2380000  43.3420000   4.8220000 -20.1530000
  44.4580000   5.2760000 -15.6410000  44.2370000   4.7630000 -14.4170000
  45.1160000   4.5020000 -13.6160000  42.7650000   4.5590000 -14.1430000
  42.2620000   5.5280000 -14.1660000  42.3410000   3.9480000 -14.9430000
  42.5360000   3.8740000 -12.7830000  43.0610000   2.9170000 -12.7780000
  42.9700000   4.4920000 -11.9930000  41.0510000   3.6310000 -12.4780000
  40.5490000   4.5860000 -12.3070000  40.5770000   3.1670000 -13.3460000
  40.8510000   2.7050000 -11.2640000  39.7790000   2.5560000 -11.1200000
  41.2750000   1.7250000 -11.4960000  41.4810000   3.2070000  -9.9470000
  41.3270000   2.4440000  -9.1800000  42.5610000   3.3120000 -10.0660000
  40.8820000   4.5380000  -9.4500000  41.1830000   5.3510000 -10.1130000
  39.7920000   4.4770000  -9.4900000  41.2940000   4.8730000  -8.0040000
  40.7420000   5.7660000  -7.7020000  40.9720000   4.0650000  -7.3440000
  42.7810000   5.1520000  -7.8830000  43.1830000   5.8070000  -8.6520000
  43.6010000   4.6940000  -6.9410000  44.6470000   4.9900000  -6.9720000
  43.2320000   3.7770000  -5.7890000  43.0710000   4.3760000  -4.8910000
  42.3020000   3.2400000  -5.9880000  44.3300000   2.7400000  -5.4740000
  43.9730000   2.1190000  -4.6490000  44.4610000   2.0800000  -6.3340000
  45.6940000   3.3600000  -5.0980000  46.1270000   3.8270000  -5.9850000
  45.5480000   4.1490000  -4.3570000  46.6990000   2.3290000  -4.5450000
  46.7220000   1.4570000  -5.2020000  47.6990000   2.7690000  -4.5600000
  46.3760000   1.8980000  -3.1010000  46.4860000   2.7670000  -2.4480000
  45.3380000   1.5680000  -3.0320000  47.2860000   0.7610000  -2.6000000
  47.1280000  -0.1160000  -3.2310000  48.3340000   1.0490000  -2.7100000
  47.0070000   0.3690000  -1.1350000  45.9380000   0.1780000  -1.0190000
  47.5310000  -0.5630000  -0.9140000  47.4310000   1.4260000  -0.1010000
  47.1980000   1.0780000   0.9080000  46.9090000   2.3710000  -0.2670000
  48.5060000   1.6110000  -0.1510000  26.7380000 -14.7630000   0.6430000
  27.6550000 -14.5220000   1.1850000  26.9910000 -14.9160000  -0.4080000
  26.3430000 -15.6990000   1.0440000  25.7110000 -13.6270000   0.7980000
  26.0630000 -12.7530000   0.2460000  25.6520000 -13.3360000   1.8490000
  24.2970000 -14.0060000   0.3120000  23.6570000 -13.1230000   0.3810000
  23.8770000 -14.7630000   0.9770000  24.2820000 -14.5370000  -1.1330000
  24.8260000 -15.4820000  -1.1810000  24.8020000 -13.8260000  -1.7780000
  22.8600000 -14.7530000  -1.6760000  22.3140000 -13.8080000  -1.6420000
  22.3280000 -15.4660000  -1.0420000  22.8940000 -15.2760000  -3.1230000
  23.3620000 -16.2630000  -3.1380000  23.5160000 -14.6090000  -3.7230000
  21.4900000 -15.3590000  -3.7520000  21.0600000 -14.3560000  -3.7950000
  20.8400000 -15.9500000  -3.1050000  21.4660000 -15.9780000  -5.1640000
  20.4870000 -15.7770000  -5.6050000  21.5520000 -17.0630000  -5.0690000
  22.5660000 -15.4800000  -6.1270000  23.5450000 -15.7770000  -5.7450000
  22.5510000 -14.3900000  -6.1940000  22.3780000 -16.0800000  -7.5300000
  21.4380000 -15.7220000  -7.9540000  22.2930000 -17.1650000  -7.4310000
  23.5290000 -15.7670000  -8.5040000  24.4820000 -16.0430000  -8.0470000
  23.5550000 -14.6960000  -8.7170000  23.3360000 -16.5690000  -9.8030000
  22.3820000 -16.2970000 -10.2600000  23.2740000 -17.6260000  -9.5380000
  24.4540000 -16.4330000 -10.8470000  24.2650000 -17.1750000 -11.6250000
  25.4190000 -16.6790000 -10.3980000  24.5170000 -15.0330000 -11.4820000
  24.9630000 -14.3360000 -10.7690000  23.5050000 -14.6790000 -11.6880000
  25.3340000 -15.0110000 -12.7880000  26.3530000 -15.3540000 -12.5980000
  25.3910000 -13.9860000 -13.1590000  24.7040000 -15.8730000 -13.8620000
  25.2450000 -16.8590000 -14.3400000  23.4630000 -15.4560000 -14.1860000
  22.8440000 -15.9180000 -15.4240000  21.7620000 -15.9200000 -15.2670000
  23.1470000 -16.9410000 -15.6610000  23.1510000 -14.9620000 -16.6140000
  22.4760000 -15.2180000 -17.4350000  24.6150000 -15.0890000 -17.1220000
  24.6610000 -14.6790000 -18.1340000  24.9000000 -16.1430000 -17.1780000
  25.5710000 -14.3710000 -16.2880000  27.0360000 -13.9850000 -16.8560000
  26.7170000 -12.7300000 -17.8110000  27.6350000 -11.6290000 -17.9150000
  28.6410000 -12.0090000 -18.1110000  27.6450000 -11.0800000 -16.9700000
  27.1760000 -10.6980000 -19.0630000  27.8790000  -9.8660000 -19.1280000
  26.1910000 -10.2930000 -18.8260000  27.0790000 -11.2710000 -20.4600000
  26.9050000 -10.1470000 -21.4290000  25.9990000  -9.5970000 -21.1710000
  26.8210000 -10.5640000 -22.4330000  27.7770000  -9.4940000 -21.3660000
  28.3170000 -12.0190000 -20.8350000  28.4100000 -12.8800000 -20.1720000
  29.1750000 -11.3540000 -20.7250000  28.2220000 -12.3510000 -21.8700000
  25.9030000 -12.1810000 -20.6050000  26.0520000 -13.0390000 -19.9470000
  25.8370000 -12.5100000 -21.6430000  25.0000000 -11.6430000 -20.3130000
  27.8740000 -13.5290000 -15.7100000  27.5420000 -15.0930000 -17.7150000
  22.8600000 -13.6020000 -16.1800000  22.8890000 -12.5960000 -17.0720000
  22.9480000 -12.7370000 -18.2830000  22.8680000 -11.2520000 -16.3840000
  22.6140000 -10.4780000 -17.1110000  22.0920000 -11.2610000 -15.6160000
  24.2450000 -10.9620000 -15.7540000  24.4770000 -11.7230000 -15.0060000
  25.0040000 -11.0390000 -16.5350000  24.3530000  -9.5650000 -15.1170000
  25.3950000  -9.3830000 -14.8490000  24.0870000  -8.8200000 -15.8700000
  23.4770000  -9.3540000 -13.8650000  23.3850000  -8.2800000 -13.6890000
  22.4670000  -9.7310000 -14.0420000  24.0590000  -9.9960000 -12.5920000
  24.1630000 -11.0740000 -12.7320000  25.0550000  -9.5870000 -12.4090000
  23.1600000  -9.7140000 -11.3720000  22.9170000  -8.6490000 -11.3480000
  22.2170000 -10.2510000 -11.4910000  23.7970000 -10.0860000 -10.0200000
  24.6900000  -9.4770000  -9.8690000  23.0870000  -9.8310000  -9.2300000
  24.1510000 -11.5550000  -9.9230000  23.7740000 -12.1850000 -10.7250000
  24.9120000 -12.0890000  -8.9730000  25.1350000 -13.1530000  -8.9990000
  25.4720000 -11.3460000  -7.7790000  26.5400000 -11.1790000  -7.9330000
  24.9980000 -10.3700000  -7.6590000  25.2930000 -12.1630000  -6.4860000
  24.2310000 -12.3520000  -6.3160000  25.7850000 -13.1310000  -6.6030000
  25.8860000 -11.4330000  -5.2670000  26.9240000 -11.1710000  -5.4800000
  25.3380000 -10.5020000  -5.1080000  25.8400000 -12.2910000  -3.9890000
  24.8000000 -12.5050000  -3.7310000  26.3260000 -13.2480000  -4.1910000
  26.5460000 -11.6290000  -2.7890000  26.6300000 -12.3610000  -1.9840000
  27.5620000 -11.3580000  -3.0820000  25.8030000 -10.3860000  -2.2580000
  25.7360000  -9.6320000  -3.0450000  24.7820000 -10.6730000  -1.9980000
  26.4610000  -9.7520000  -1.0170000  25.8270000  -8.9340000  -0.6670000
  26.5100000 -10.4870000  -0.2110000  27.8700000  -9.2010000  -1.2880000
  28.2450000  -8.6850000  -0.4010000  27.8510000  -8.4880000  -2.1150000
  28.5650000 -10.0060000  -1.5340000  37.9070000   9.9540000   0.1050000
  38.4240000   8.9950000   0.0310000  36.8670000   9.7680000   0.3810000
  38.3830000  10.5400000   0.8940000  37.9870000  10.6920000  -1.2380000
  37.5210000  10.0770000  -2.0100000  39.0390000  10.8120000  -1.5060000
  37.3080000  12.0740000  -1.2000000  37.6040000  12.5940000  -0.2860000
  36.2250000  11.9440000  -1.1640000  37.6850000  12.9580000  -2.4030000
  38.7580000  13.1600000  -2.3650000  37.1760000  13.9190000  -2.3040000
  37.3410000  12.3450000  -3.7750000  36.2640000  12.1730000  -3.8400000
  37.8390000  11.3800000  -3.8870000  37.7890000  13.2700000  -4.9200000
  38.8590000  13.4610000  -4.8180000  37.2770000  14.2300000  -4.8260000
  37.5190000  12.6870000  -6.3200000  36.4460000  12.5390000  -6.4580000
  38.0050000  11.7130000  -6.4130000  38.0590000  13.6330000  -7.4060000
  39.1240000  13.7940000  -7.2300000  37.5560000  14.5980000  -7.3140000
  37.8830000  13.1140000  -8.8410000  36.8210000  12.9680000  -9.0500000
  38.3790000  12.1460000  -8.9310000  38.4820000  14.1070000  -9.8580000
  39.5460000  14.2410000  -9.6530000  38.0050000  15.0800000  -9.7230000
  38.3000000  13.6740000 -11.3240000  38.6580000  14.4760000 -11.9730000
  37.2350000  13.5450000 -11.5260000  39.0480000  12.3760000 -11.6760000
  38.7100000  11.5700000 -11.0220000  40.1170000  12.5150000 -11.5050000
  38.8000000  11.9660000 -13.1380000  39.1830000  12.7440000 -13.8030000
  37.7240000  11.8980000 -13.3070000  39.4340000  10.6160000 -13.5160000
  39.1340000  10.3690000 -14.5360000  39.0380000   9.8350000 -12.8620000
  40.9680000  10.5970000 -13.4320000  41.3070000  10.6560000 -12.3960000
  41.3680000  11.4600000 -13.9680000  41.5110000   9.3370000 -14.0630000
  41.1600000   8.2140000 -13.7390000  42.4440000   9.6160000 -14.9940000
  42.8560000   8.5760000 -15.9220000  42.9720000   7.6220000 -15.4010000
  43.8320000   8.8710000 -16.3140000  41.8910000   8.4190000 -17.1330000
  42.3580000   7.7070000 -17.8180000  41.6650000   9.7620000 -17.8880000
  41.2310000   9.5350000 -18.8650000  42.6220000  10.2640000 -18.0560000
  40.7760000  10.6710000 -17.1760000  39.6190000  11.4910000 -17.9520000
  38.5010000  10.3560000 -18.2020000  37.1570000  10.7050000 -18.5870000
  36.8520000  11.6220000 -18.0760000  36.4830000   9.9050000 -18.2720000
  37.0720000  10.8930000 -20.1210000  37.7490000  11.6930000 -20.4230000
  36.0550000  11.1970000 -20.3740000  37.3880000   9.7150000 -21.0130000
  36.6480000   8.4880000 -20.5910000  37.0010000   8.1970000 -19.6000000
  36.8550000   7.6940000 -21.3090000  35.5800000   8.7120000 -20.5690000
  36.9790000  10.0510000 -22.4090000  37.5260000  10.9400000 -22.7270000
  35.9050000  10.2420000 -22.4230000  37.2200000   9.2070000 -23.0560000
  38.8490000   9.4180000 -21.0300000  39.3830000  10.3260000 -21.3170000
  39.0410000   8.6120000 -21.7390000  39.1440000   9.1180000 -20.0240000
  39.0650000  12.5170000 -17.0260000  40.1470000  11.9320000 -19.2750000
  40.6270000   7.8590000 -16.6750000  39.7900000   7.3040000 -17.5730000
  39.9890000   7.2830000 -18.7770000  38.5830000   6.6540000 -16.9360000
  37.9400000   6.2590000 -17.7250000  38.9220000   5.8120000 -16.3290000
  37.7780000   7.6250000 -16.0500000  38.4020000   7.9380000 -15.2100000
  37.5150000   8.5190000 -16.6200000  36.4880000   6.9610000 -15.5300000
  35.8600000   6.6930000 -16.3830000  36.7490000   6.0310000 -15.0220000
  35.6640000   7.8420000 -14.5700000  35.3690000   8.7620000 -15.0790000
  34.7480000   7.3100000 -14.3060000  36.4290000   8.1920000 -13.2800000
  36.8440000   7.2790000 -12.8500000  37.2660000   8.8470000 -13.5330000
  35.5490000   8.8970000 -12.2310000  35.1520000   9.8200000 -12.6590000
  34.6970000   8.2610000 -11.9850000  36.3190000   9.2370000 -10.9390000
  37.1490000   9.9040000 -11.1800000  35.6460000   9.7920000 -10.2820000
  36.7840000   7.9820000 -10.2220000  36.0160000   7.2220000 -10.1010000
  38.0030000   7.7390000  -9.7480000  38.1940000   6.7880000  -9.2560000
  39.1990000   8.6700000  -9.8060000  40.0970000   8.0940000 -10.0390000
  39.0890000   9.4050000 -10.6060000  39.4010000   9.4080000  -8.4680000
  40.1840000  10.1590000  -8.5880000  38.4820000   9.9390000  -8.2110000
  39.7780000   8.4570000  -7.3170000  38.9900000   7.7120000  -7.1890000
  40.6950000   7.9240000  -7.5800000  39.9930000   9.1890000  -5.9820000
  40.8330000   9.8800000  -6.0750000  39.1030000   9.7790000  -5.7520000
  40.2540000   8.2060000  -4.8260000  39.4310000   7.4890000  -4.7830000
  41.1720000   7.6460000  -5.0170000  40.3650000   8.9440000  -3.4800000
  41.2080000   9.6370000  -3.5280000  39.4660000   9.5480000  -3.3400000
  40.5440000   8.0230000  -2.2560000  41.4620000   7.4410000  -2.3620000
  40.6600000   8.6490000  -1.3680000  39.3710000   7.0540000  -2.0250000
  39.5190000   6.5000000  -1.0960000  39.2970000   6.3320000  -2.8420000
  38.4280000   7.6000000  -1.9550000  33.7780000 -26.1700000  -1.0720000
  32.8330000 -25.6300000  -1.1660000  33.7700000 -26.7200000  -0.1290000
  33.8430000 -26.8860000  -1.8940000  34.9560000 -25.1800000  -1.1120000
  34.8070000 -24.4280000  -0.3340000  34.9510000 -24.6520000  -2.0680000
  36.3280000 -25.8490000  -0.8930000  36.3500000 -26.2700000   0.1140000
  37.1030000 -25.0810000  -0.9330000  36.6820000 -26.9680000  -1.8920000
  35.9760000 -27.7920000  -1.7730000  37.6680000 -27.3600000  -1.6330000
  36.6950000 -26.5200000  -3.3680000  37.4130000 -25.7080000  -3.5020000
  35.7090000 -26.1440000  -3.6480000  37.0640000 -27.6940000  -4.2910000
  36.3700000 -28.5130000  -4.0930000  38.0690000 -28.0430000  -4.0460000
  36.9950000 -27.3580000  -5.7910000  37.6820000 -26.5410000  -6.0170000
  35.9860000 -27.0210000  -6.0370000  37.3480000 -28.5850000  -6.6560000
  36.7020000 -29.4190000  -6.3760000  38.3780000 -28.8850000  -6.4520000
  37.1830000 -28.3070000  -8.1610000  37.8110000 -27.4600000  -8.4450000
  36.1460000 -28.0240000  -8.3560000  37.5470000 -29.5260000  -9.0310000
  36.9810000 -30.3950000  -8.6890000  38.6070000 -29.7580000  -8.9090000
  37.2440000 -29.2700000 -10.5190000  37.8460000 -28.4280000 -10.8660000
  36.1950000 -28.9820000 -10.6210000  37.5140000 -30.4920000 -11.4190000
  36.9090000 -31.3330000 -11.0730000  38.5630000 -30.7820000 -11.3420000
  37.1720000 -30.1690000 -12.8880000  37.7930000 -29.3340000 -13.2180000
  36.1340000 -29.8340000 -12.9440000  37.3620000 -31.3390000 -13.8730000
  38.4140000 -31.6320000 -13.9010000  37.1060000 -30.9750000 -14.8700000
  36.4910000 -32.5680000 -13.5350000  35.6520000 -32.2640000 -12.9050000
  37.0720000 -33.3040000 -12.9760000  35.9190000 -33.2040000 -14.7760000
  36.3910000 -34.1790000 -15.3350000  34.8130000 -32.5650000 -15.1870000
  33.9820000 -33.1350000 -16.2380000  33.5990000 -34.1000000 -15.8970000
  34.5790000 -33.2900000 -17.1400000  32.7800000 -32.1990000 -16.5510000
  32.0420000 -32.7600000 -17.1300000  33.2180000 -30.9500000 -17.3750000
  32.3360000 -30.5480000 -17.8800000  33.9420000 -31.2370000 -18.1420000
  33.7880000 -29.9020000 -16.5380000  34.0560000 -28.4130000 -17.1030000
  35.5490000 -28.4960000 -17.6970000  35.8260000 -29.1080000 -18.9700000
  34.9030000 -29.3070000 -19.5200000  36.3270000 -30.0630000 -18.7880000
  36.7520000 -28.1780000 -19.7910000  37.0550000 -28.7050000 -20.6960000
  37.6480000 -27.9640000 -19.2070000  36.2140000 -26.8420000 -20.2510000
  34.9220000 -26.9980000 -20.9840000  35.0690000 -27.6950000 -21.8100000
  34.6130000 -26.0220000 -21.3600000  34.1770000 -27.3840000 -20.2860000
  36.0130000 -25.8990000 -19.1120000  36.9550000 -25.8010000 -18.5690000
  35.2460000 -26.3160000 -18.4580000  35.6920000 -24.9330000 -19.5040000
  37.2070000 -26.2250000 -21.1810000  38.1480000 -26.0890000 -20.6450000
  36.8210000 -25.2620000 -21.5180000  37.3500000 -26.8920000 -22.0330000
  33.1220000 -28.1410000 -18.2260000  34.0810000 -27.4620000 -15.9580000
  32.1950000 -31.8180000 -15.2760000  31.1680000 -30.9570000 -15.2120000
  30.4220000 -30.6900000 -16.1400000  31.0230000 -30.3900000 -13.8210000
  30.1250000 -29.7710000 -13.7710000  30.9090000 -31.2220000 -13.1230000
  32.2590000 -29.5450000 -13.4450000  33.1700000 -30.1210000 -13.6170000
  32.3030000 -28.6810000 -14.1110000  32.2550000 -29.0420000 -11.9890000
  33.1360000 -28.4130000 -11.8390000  31.3810000 -28.4050000 -11.8370000
  32.2530000 -30.1480000 -10.9150000  32.2690000 -29.6640000  -9.9370000
  31.3180000 -30.7090000 -10.9700000  33.4180000 -31.1540000 -11.0210000
  33.3190000 -31.7020000 -11.9600000  34.3740000 -30.6270000 -11.0540000
  33.4160000 -32.1780000  -9.8640000  32.3890000 -32.3660000  -9.5440000
  33.8000000 -33.1260000 -10.2470000  34.2760000 -31.7860000  -8.6440000
  34.1560000 -32.5470000  -7.8690000  35.3250000 -31.8160000  -8.9430000
  33.9570000 -30.4070000  -8.0990000  34.3820000 -29.5850000  -8.6700000
  33.2640000 -30.1350000  -6.9970000  33.1280000 -29.0980000  -6.7000000
  32.5830000 -31.1500000  -6.1030000  31.6090000 -30.7670000  -5.7910000
  32.3950000 -32.0780000  -6.6470000  33.4260000 -31.4580000  -4.8530000
  32.9730000 -32.2930000  -4.3140000  34.4180000 -31.7720000  -5.1840000
  33.5770000 -30.2590000  -3.8960000  34.0650000 -29.4370000  -4.4230000
  32.5850000 -29.9110000  -3.6000000  34.3840000 -30.5870000  -2.6240000
  34.4690000 -29.6760000  -2.0290000  33.8360000 -31.3160000  -2.0230000
  35.7920000 -31.1460000  -2.9040000  35.7100000 -32.1670000  -3.2800000
  36.2720000 -30.5530000  -3.6850000  36.6680000 -31.1530000  -1.6380000
  36.6770000 -30.1580000  -1.1890000  36.2160000 -31.8280000  -0.9090000
  38.1190000 -31.5970000  -1.9090000  38.6270000 -31.7420000  -0.9530000
  38.1190000 -32.5600000  -2.4240000  38.9250000 -30.5800000  -2.7350000
  39.9590000 -30.9160000  -2.8350000  38.9250000 -29.6050000  -2.2440000
  38.5050000 -30.4680000  -3.7370000  18.3510000  17.3440000   1.4520000
  18.1480000  17.7580000   2.4420000  19.3630000  17.6360000   1.1620000
  18.3050000  16.2560000   1.5190000  17.3190000  17.8660000   0.4370000
  17.3960000  18.9530000   0.3660000  16.3200000  17.6370000   0.8140000
  17.4580000  17.2380000  -0.9640000  16.6700000  17.6300000  -1.6100000
  17.2890000  16.1630000  -0.8770000  18.8220000  17.4590000  -1.6440000
  18.8300000  16.9010000  -2.5830000  19.6100000  17.0250000  -1.0240000
  19.1720000  18.9330000  -1.9380000  20.2000000  18.9640000  -2.3050000
  19.1580000  19.5090000  -1.0100000  18.2500000  19.6080000  -2.9770000
  17.2690000  19.7820000  -2.5290000  18.1090000  18.9460000  -3.8330000
  18.8430000  20.9470000  -3.4650000  19.7230000  20.7430000  -4.0790000
  19.1930000  21.5160000  -2.6020000  17.8710000  21.8300000  -4.2750000
  18.3580000  22.7910000  -4.4550000  16.9720000  22.0290000  -3.6890000
  17.4730000  21.2160000  -5.6280000  16.8250000  20.3530000  -5.4620000
  18.3810000  20.8610000  -6.1190000  16.7600000  22.2370000  -6.5420000
  17.4410000  23.0690000  -6.7360000  15.8940000  22.6470000  -6.0200000
  16.2940000  21.6540000  -7.8930000  15.8740000  22.4590000  -8.4990000
  15.4920000  20.9350000  -7.7110000  17.4270000  20.9570000  -8.6710000
  17.8040000  20.1360000  -8.0570000  18.2570000  21.6490000  -8.8270000
  16.9800000  20.3470000 -10.0110000  16.0770000  19.7580000  -9.8370000
  17.7470000  19.6480000 -10.3500000  16.7170000  21.3640000 -11.1380000
  15.9360000  22.0640000 -10.8350000  16.3380000  20.8150000 -12.0030000
  17.9830000  22.1420000 -11.5580000  18.8190000  21.4460000 -11.6590000
  18.2570000  22.8740000 -10.7950000  17.7930000  22.8540000 -12.8770000
  16.7650000  23.4210000 -13.2040000  18.8880000  22.7750000 -13.6610000
  18.8270000  23.2090000 -15.0570000  19.8050000  23.6240000 -15.3150000
  18.0860000  24.0000000 -15.1940000  18.5450000  22.0210000 -16.0230000
  18.5840000  22.3930000 -17.0510000  17.1510000  21.3760000 -15.8120000
  16.4570000  22.1440000 -15.4610000  17.2060000  20.5870000 -15.0570000
  16.6050000  20.8500000 -17.0590000  17.1080000  19.4640000 -17.7390000
  18.4650000  19.8990000 -18.4890000  18.4320000  20.7270000 -19.6690000
  19.3780000  21.2710000 -19.7390000  17.6270000  21.4590000 -19.5740000
  18.2250000  19.8660000 -20.9400000  18.1510000  20.5320000 -21.8010000
  17.2820000  19.3240000 -20.8510000  19.2720000  18.8390000 -21.2990000
  19.2960000  17.7140000 -20.3180000  19.5930000  18.1120000 -19.3460000
  20.0090000  16.9610000 -20.6590000  18.2920000  17.2930000 -20.2520000
  18.9410000  18.2690000 -22.6390000  18.9440000  19.0750000 -23.3740000
  17.9540000  17.8060000 -22.5880000  19.6940000  17.5230000 -22.8970000
  20.6320000  19.4530000 -21.3770000  20.6070000  20.2700000 -22.0990000
  21.3410000  18.6880000 -21.6970000  20.9030000  19.8260000 -20.3880000
  17.4480000  18.4770000 -16.6770000  16.1150000  19.0750000 -18.7720000
  19.5520000  20.9970000 -15.8100000  20.6580000  20.9840000 -16.5770000
  20.8860000  21.7750000 -17.4780000  21.6100000  19.8870000 -16.1640000
  21.0340000  18.9850000 -15.9480000  22.2890000  19.6660000 -16.9900000
  22.4090000  20.3250000 -14.9210000  22.9480000  21.2420000 -15.1670000
  21.7150000  20.5760000 -14.1150000  23.4290000  19.2880000 -14.4130000
  24.1890000  19.1350000 -15.1830000  23.9440000  19.7040000 -13.5450000
  22.8320000  17.9160000 -14.0360000  22.4870000  17.4180000 -14.9440000
  23.6250000  17.2930000 -13.6190000  21.6620000  17.9640000 -13.0330000
  20.8150000  18.4830000 -13.4850000  21.3380000  16.9370000 -12.8500000
  22.0090000  18.6390000 -11.6880000  22.8770000  18.1490000 -11.2420000
  22.2840000  19.6800000 -11.8680000  20.8340000  18.6120000 -10.6900000
  21.0950000  19.2270000  -9.8260000  19.9640000  19.0640000 -11.1700000
  20.5010000  17.1990000 -10.2500000  20.8750000  16.4120000 -10.8990000
  19.8660000  16.8570000  -9.1350000  19.7230000  15.8040000  -8.9090000
  19.2280000  17.8150000  -8.1520000  19.5520000  18.8440000  -8.3200000
  18.1470000  17.7820000  -8.3040000  19.4980000  17.4190000  -6.6900000
  18.7490000  17.9010000  -6.0590000  19.3620000  16.3410000  -6.5790000
  20.8940000  17.8260000  -6.1800000  21.6700000  17.4340000  -6.8410000
  20.9690000  18.9150000  -6.1930000  21.1160000  17.2980000  -4.7510000
  20.2870000  17.6430000  -4.1300000  21.0670000  16.2070000  -4.7610000
  22.4380000  17.7260000  -4.0860000  22.4500000  17.3080000  -3.0780000
  23.2810000  17.2870000  -4.6230000  22.6200000  19.2570000  -4.0210000
  22.9430000  19.6150000  -5.0010000  21.6600000  19.7340000  -3.8110000
  23.6350000  19.7200000  -2.9600000  24.5800000  19.1890000  -3.0990000
  23.8330000  20.7830000  -3.1140000  23.1400000  19.5320000  -1.5150000
  23.8630000  19.9490000  -0.8120000  23.0050000  18.4740000  -1.2800000
  22.1870000  20.0450000  -1.3670000 -10.1620000 -45.8540000  -1.2690000
  -9.4230000 -46.6020000  -0.9740000 -11.1540000 -46.2210000  -0.9990000
  -9.9710000 -44.9330000  -0.7140000 -10.0680000 -45.5980000  -2.7790000
 -10.1930000 -46.5410000  -3.3150000  -9.0710000 -45.2160000  -3.0080000
 -11.1310000 -44.5930000  -3.2490000 -10.9640000 -43.6360000  -2.7500000
 -12.1120000 -44.9540000  -2.9340000 -11.1430000 -44.3750000  -4.7760000
 -11.9380000 -43.6680000  -5.0190000 -11.3760000 -45.3180000  -5.2750000
  -9.8050000 -43.8400000  -5.3130000  -9.0380000 -44.6100000  -5.2010000
  -9.5030000 -42.9850000  -4.7050000  -9.8770000 -43.3950000  -6.7850000
 -10.6860000 -42.6700000  -6.8930000 -10.1140000 -44.2470000  -7.4260000
  -8.5640000 -42.7350000  -7.2490000  -8.2730000 -41.9850000  -6.5110000
  -8.7470000 -42.2080000  -8.1880000  -7.4010000 -43.7260000  -7.4550000
  -7.5740000 -44.2930000  -8.3730000  -7.3740000 -44.4470000  -6.6350000
  -6.0220000 -43.0420000  -7.5270000  -5.2740000 -43.8030000  -7.7570000
  -5.7790000 -42.6380000  -6.5420000  -5.9230000 -41.9100000  -8.5680000
  -6.6420000 -41.1260000  -8.3210000  -6.1860000 -42.3030000  -9.5520000
  -4.5040000 -41.3090000  -8.6210000  -3.8030000 -42.1100000  -8.8650000
  -4.2270000 -40.9260000  -7.6360000  -4.3510000 -40.1880000  -9.6660000
  -4.7320000 -40.5510000 -10.6230000  -3.2890000 -39.9790000  -9.8100000
  -5.0540000 -38.8770000  -9.2540000  -4.4870000 -38.4360000  -8.4310000
  -6.0540000 -39.0850000  -8.8660000  -5.1640000 -37.8420000 -10.3930000
  -4.2930000 -37.9170000 -11.0470000  -5.1410000 -36.8450000  -9.9490000
  -6.4620000 -37.9470000 -11.2260000  -6.4360000 -37.2080000 -12.0290000
  -7.3220000 -37.7140000 -10.5950000  -6.6560000 -39.3140000 -11.8320000
  -7.4410000 -40.1350000 -11.3880000  -5.8410000 -39.5190000 -12.8920000
  -5.9600000 -40.7670000 -13.6380000  -6.2350000 -41.5910000 -12.9740000
  -4.9800000 -40.9930000 -14.0650000  -6.9820000 -40.6390000 -14.7970000
  -7.1270000 -41.6240000 -15.2470000  -6.4890000 -39.6590000 -15.8860000
  -5.5730000 -40.0450000 -16.3400000  -6.2770000 -38.6860000 -15.4350000
  -7.5200000 -39.4930000 -16.9000000  -7.2680000 -39.8850000 -18.4390000
  -7.1310000 -41.4850000 -18.3990000  -8.2750000 -42.3330000 -18.1700000
  -8.9290000 -41.8620000 -17.4310000  -7.9240000 -43.2830000 -17.7590000
  -9.0610000 -42.5870000 -19.4790000  -9.4760000 -41.6440000 -19.8400000
  -9.8910000 -43.2570000 -19.2520000  -8.3440000 -43.2060000 -20.6540000
  -7.5590000 -44.4110000 -20.2490000  -6.7800000 -44.0960000 -19.5540000
  -7.1130000 -44.8510000 -21.1420000  -8.2360000 -45.1200000 -19.7720000
  -9.3600000 -43.6280000 -21.6620000  -9.9350000 -42.7510000 -21.9650000
 -10.0150000 -44.3720000 -21.2070000  -8.8430000 -44.0550000 -22.5230000
  -7.4330000 -42.2220000 -21.3090000  -8.0190000 -41.3450000 -21.5870000
  -6.9890000 -42.6840000 -22.1920000  -6.6610000 -41.9410000 -20.5910000
  -8.4810000 -39.5110000 -19.2100000  -5.9580000 -39.3230000 -18.8500000
  -8.2200000 -40.1060000 -14.2630000  -9.3840000 -40.7560000 -14.4360000
  -9.4880000 -41.8620000 -14.9400000 -10.5730000 -39.9660000 -13.9340000
 -11.4390000 -40.2370000 -14.5410000 -10.7750000 -40.2600000 -12.9020000
 -10.3510000 -38.4380000 -14.0060000  -9.6060000 -38.1430000 -13.2630000
  -9.9430000 -38.1870000 -14.9880000 -11.6290000 -37.6060000 -13.8010000
 -11.3620000 -36.5470000 -13.8170000 -12.2920000 -37.7760000 -14.6510000
 -12.4120000 -37.9060000 -12.5090000 -13.2820000 -37.2460000 -12.4820000
 -12.7870000 -38.9300000 -12.5550000 -11.6160000 -37.7450000 -11.2000000
 -10.9310000 -38.5880000 -11.0820000 -11.0140000 -36.8360000 -11.2430000
 -12.5720000 -37.6680000  -9.9910000 -13.1760000 -36.7630000 -10.0870000
 -13.2620000 -38.5140000 -10.0140000 -11.8640000 -37.6360000  -8.6230000
 -11.0610000 -36.8950000  -8.6350000 -12.5950000 -37.2990000  -7.8870000
 -11.3890000 -39.0140000  -8.2010000 -12.1710000 -39.7680000  -8.1760000
 -10.1630000 -39.3540000  -7.8160000  -9.9780000 -40.3790000  -7.5070000
  -8.9350000 -38.4660000  -7.8160000  -8.1300000 -38.9950000  -8.3320000
  -9.1060000 -37.5440000  -8.3750000  -8.4570000 -38.1110000  -6.3930000
  -7.5960000 -37.4450000  -6.4830000  -9.2430000 -37.5560000  -5.8760000
  -8.0450000 -39.3280000  -5.5420000  -8.9210000 -39.9570000  -5.3670000
  -7.3160000 -39.9200000  -6.0990000  -7.4220000 -38.9140000  -4.1930000
  -6.5700000 -38.2600000  -4.3890000  -8.1460000 -38.3340000  -3.6160000
  -6.9320000 -40.1100000  -3.3500000  -6.2700000 -40.7250000  -3.9630000
  -6.3390000 -39.7310000  -2.5150000  -8.0810000 -40.9690000  -2.7870000
  -8.7200000 -40.3350000  -2.1690000  -8.6970000 -41.3360000  -3.6110000
  -7.6170000 -42.1700000  -1.9380000  -7.0460000 -41.8090000  -1.0800000
  -8.5010000 -42.6780000  -1.5450000  -6.7700000 -43.1930000  -2.7150000
  -6.5490000 -44.0540000  -2.0810000  -5.8220000 -42.7530000  -3.0330000
  -7.3050000 -43.5450000  -3.5990000 -16.1330000  37.6670000   0.1390000
 -15.5940000  36.9970000   0.8120000 -16.6460000  37.0510000  -0.6030000
 -16.8800000  38.2150000   0.7170000 -15.1520000  38.6390000  -0.5400000
 -14.4440000  38.0630000  -1.1400000 -14.5750000  39.1540000   0.2310000
 -15.8400000  39.6930000  -1.4320000 -15.0740000  40.3170000  -1.8960000
 -16.4470000  40.3510000  -0.8070000 -16.7260000  39.0740000  -2.5310000
 -17.5180000  38.4880000  -2.0600000 -16.1340000  38.3830000  -3.1360000
 -17.3780000  40.1280000  -3.4430000 -16.6070000  40.7610000  -3.8890000
 -18.0190000  40.7690000  -2.8350000 -18.2220000  39.4870000  -4.5600000
 -18.8660000  38.7200000  -4.1240000 -17.5620000  38.9910000  -5.2740000
 -19.0990000  40.5210000  -5.2930000 -18.4670000  41.3350000  -5.6530000
 -19.8100000  40.9520000  -4.5860000 -19.8730000  39.9340000  -6.4900000
 -19.1490000  39.6290000  -7.2490000 -20.4860000  40.7260000  -6.9260000
 -20.7800000  38.7370000  -6.1280000 -21.4330000  39.0190000  -5.2990000
 -20.1620000  37.9070000  -5.7810000 -21.6490000  38.2390000  -7.3020000
 -22.3490000  39.0240000  -7.5970000 -22.2380000  37.3830000  -6.9670000
 -20.8030000  37.8330000  -8.5190000 -20.0090000  37.1630000  -8.1810000
 -20.3300000  38.7230000  -8.9380000 -21.5870000  37.1170000  -9.6290000
 -22.4820000  37.6920000  -9.8770000 -21.9070000  36.1360000  -9.2720000
 -20.7050000  36.9600000 -10.8820000 -19.7900000  36.4260000 -10.6190000
 -20.4080000  37.9580000 -11.2120000 -21.4040000  36.2190000 -12.0390000
 -22.3940000  36.6480000 -12.2050000 -21.5470000  35.1750000 -11.7530000
 -20.6070000  36.2750000 -13.3590000 -19.5700000  35.9780000 -13.1870000
 -21.0370000  35.5740000 -14.0780000 -20.6410000  37.6600000 -13.9610000
 -21.5540000  38.0570000 -14.6660000 -19.5860000  38.4070000 -13.5740000
 -19.4530000  39.7800000 -14.0450000 -19.3770000  40.4250000 -13.1650000
 -20.3360000  40.1030000 -14.6030000 -18.1860000  39.9810000 -14.9300000
 -18.0050000  41.0550000 -15.0190000 -18.3600000  39.4270000 -16.3680000
 -17.4480000  39.6300000 -16.9360000 -19.1910000  39.9430000 -16.8550000
 -18.6160000  37.9950000 -16.3830000 -18.7560000  37.1850000 -17.7750000
 -17.2560000  37.2330000 -18.3660000 -16.2020000  36.4320000 -17.7950000
 -16.3870000  36.2860000 -16.7280000 -15.2590000  36.9730000 -17.9030000
 -16.1000000  35.0700000 -18.5170000 -17.0320000  34.5160000 -18.3940000
 -15.2950000  34.4980000 -18.0520000 -15.7950000  35.0650000 -19.9910000
 -15.4180000  33.6830000 -20.3890000 -14.5270000  33.4010000 -19.8270000
 -15.2130000  33.6710000 -21.4610000 -16.2520000  33.0210000 -20.1510000
 -16.9860000  35.4570000 -20.7980000 -17.2570000  36.4810000 -20.5330000
 -17.8010000  34.7740000 -20.5540000 -16.7310000  35.3900000 -21.8560000
 -14.6580000  35.9690000 -20.3260000 -14.9500000  36.9940000 -20.0880000
 -14.4330000  35.8700000 -21.3880000 -13.8000000  35.6650000 -19.7250000
 -19.1140000  35.7730000 -17.4650000 -19.6360000  37.9550000 -18.6990000
 -16.9990000  39.3710000 -14.3420000 -16.5140000  39.8370000 -13.1760000
 -16.9810000  40.7800000 -12.5620000 -15.2870000  39.0770000 -12.7340000
 -14.7190000  38.7900000 -13.6220000 -14.6500000  39.7260000 -12.1300000
 -15.6510000  37.8060000 -11.9460000 -16.3710000  37.2190000 -12.5200000
 -14.7520000  37.1970000 -11.8350000 -16.2210000  38.1020000 -10.5470000
 -15.4870000  38.6690000  -9.9700000 -17.1200000  38.7150000 -10.6360000
 -16.5670000  36.8020000  -9.8030000 -17.3060000  36.2520000 -10.3900000
 -15.6740000  36.1770000  -9.7310000 -17.1310000  37.0630000  -8.3940000
 -16.3480000  37.4690000  -7.7500000 -17.9110000  37.8240000  -8.4650000
 -17.7310000  35.7910000  -7.7600000 -18.2910000  36.0690000  -6.8650000
 -18.4500000  35.3540000  -8.4560000 -16.6900000  34.7230000  -7.3810000
 -17.2040000  33.7770000  -7.1990000 -16.0130000  34.5450000  -8.2180000
 -15.9010000  35.1530000  -6.1620000 -15.1210000  35.8860000  -6.3540000
 -16.0720000  34.6970000  -4.9250000 -15.4340000  35.0730000  -4.1300000
 -17.1150000  33.6890000  -4.4850000 -17.8940000  33.5490000  -5.2380000
 -16.6250000  32.7240000  -4.3360000 -17.7780000  34.0910000  -3.1580000
 -18.4290000  33.2740000  -2.8390000 -17.0060000  34.2070000  -2.3950000
 -18.6180000  35.3800000  -3.2310000 -17.9860000  36.2180000  -3.5320000
 -19.4000000  35.2630000  -3.9840000 -19.2490000  35.6780000  -1.8590000
 -19.8750000  34.8350000  -1.5590000 -18.4510000  35.7600000  -1.1190000
 -20.0880000  36.9660000  -1.8130000 -20.2850000  37.1990000  -0.7640000
 -19.5110000  37.8020000  -2.2160000 -21.4220000  36.8610000  -2.5730000
 -21.2230000  36.6830000  -3.6320000 -21.9870000  36.0050000  -2.1980000
 -22.2790000  38.1340000  -2.4350000 -21.7230000  38.9880000  -2.8280000
 -23.1730000  38.0210000  -3.0520000 -22.7050000  38.4280000  -0.9840000
 -23.3810000  39.2860000  -0.9520000 -21.8420000  38.6600000  -0.3570000
 -23.2260000  37.5680000  -0.5570000 -14.4860000 -28.8570000  -1.3420000
 -14.7040000 -28.4380000  -0.3580000 -13.6810000 -29.5870000  -1.2330000
 -15.3800000 -29.3690000  -1.7030000 -14.0620000 -27.7410000  -2.3100000
 -13.1790000 -27.2450000  -1.9020000 -14.8550000 -26.9920000  -2.3650000
 -13.7350000 -28.2350000  -3.7310000 -12.9470000 -28.9890000  -3.6850000
 -13.3380000 -27.3920000  -4.3010000 -14.9530000 -28.8050000  -4.4840000
 -15.7960000 -28.1190000  -4.3840000 -15.2460000 -29.7580000  -4.0410000
 -14.6420000 -29.0000000  -5.9800000 -13.7630000 -29.6390000  -6.0870000
 -14.3950000 -28.0320000  -6.4190000 -15.8140000 -29.6210000  -6.7620000
 -16.7180000 -29.0300000  -6.5990000 -16.0050000 -30.6300000  -6.3890000
 -15.5060000 -29.6750000  -8.2690000 -14.5620000 -30.2040000  -8.4170000
 -15.3710000 -28.6550000  -8.6350000 -16.6160000 -30.3650000  -9.0860000
 -17.5790000 -29.9240000  -8.8190000 -16.6600000 -31.4240000  -8.8220000
 -16.4180000 -30.2170000 -10.6070000 -16.4180000 -29.1520000 -10.8480000
 -17.2760000 -30.6580000 -11.1180000 -15.1270000 -30.8710000 -11.1470000
 -15.1870000 -31.9500000 -10.9920000 -14.2590000 -30.5170000 -10.5870000
 -14.8930000 -30.5900000 -12.6450000 -15.8100000 -30.7910000 -13.2030000
 -14.1290000 -31.2800000 -13.0080000 -14.4280000 -29.1410000 -12.8970000
 -13.4850000 -28.9880000 -12.3670000 -15.1480000 -28.4410000 -12.4670000
 -14.2420000 -28.7740000 -14.3840000 -13.8960000 -27.7400000 -14.4440000
 -15.2130000 -28.8130000 -14.8820000 -13.2510000 -29.6800000 -15.1410000
 -13.6570000 -30.6930000 -15.1870000 -12.3050000 -29.7270000 -14.5960000
 -12.9910000 -29.1680000 -16.5750000 -12.4020000 -28.2490000 -16.5480000
 -13.9430000 -28.9240000 -17.0520000 -12.2850000 -30.1810000 -17.4450000
 -11.5950000 -31.0930000 -17.0220000 -12.5300000 -29.9590000 -18.7500000
 -12.1610000 -30.9770000 -19.7280000 -11.2340000 -31.4720000 -19.4270000
 -11.9790000 -30.4810000 -20.6840000 -13.2850000 -32.0320000 -19.9350000
 -12.8560000 -32.8800000 -20.4750000 -14.4620000 -31.5410000 -20.8100000
 -15.2660000 -32.2790000 -20.7540000 -14.1280000 -31.4810000 -21.8490000
 -14.9710000 -30.2340000 -20.4230000 -16.3130000 -29.6280000 -21.0940000
 -17.4620000 -29.9530000 -20.0200000 -17.8160000 -31.3040000 -19.6690000
 -17.5040000 -31.9930000 -20.4590000 -18.9030000 -31.3710000 -19.5750000
 -17.1340000 -31.6700000 -18.3270000 -16.0570000 -31.5290000 -18.4250000
 -17.3220000 -32.7240000 -18.1190000 -17.5600000 -30.9140000 -17.0840000
 -17.1530000 -29.4780000 -17.1470000 -16.0830000 -29.4250000 -17.3530000
 -17.3940000 -28.9950000 -16.1980000 -17.7050000 -29.0040000 -17.9610000
 -19.0380000 -30.9950000 -16.8800000 -19.3330000 -32.0450000 -16.8430000
 -19.5310000 -30.4920000 -17.7130000 -19.2920000 -30.4960000 -15.9430000
 -16.8970000 -31.5220000 -15.8900000 -17.1780000 -32.5750000 -15.8300000
 -17.2390000 -30.9950000 -14.9980000 -15.8170000 -31.4170000 -15.9980000
 -16.1650000 -28.1500000 -21.1620000 -16.6160000 -30.3690000 -22.3510000
 -13.8110000 -32.4890000 -18.6530000 -13.2200000 -33.5380000 -18.0480000
 -12.3700000 -34.2400000 -18.5650000 -13.7230000 -33.7390000 -16.6400000
 -12.9540000 -33.3850000 -15.9510000 -14.6070000 -33.1160000 -16.4930000
 -14.0690000 -35.2120000 -16.3350000 -14.9450000 -35.5080000 -16.9160000
 -13.2430000 -35.8550000 -16.6440000 -14.3330000 -35.4610000 -14.8370000
 -14.5430000 -36.5230000 -14.6900000 -13.4250000 -35.2310000 -14.2760000
 -15.4990000 -34.6360000 -14.2610000 -15.3000000 -33.5700000 -14.3910000
 -16.4160000 -34.8750000 -14.8040000 -15.7020000 -34.9160000 -12.7620000
 -15.8610000 -35.9860000 -12.6160000 -14.7930000 -34.6430000 -12.2230000
 -16.8930000 -34.1270000 -12.1830000 -16.7530000 -33.0660000 -12.3960000
 -17.8140000 -34.4350000 -12.6830000 -17.0510000 -34.3090000 -10.6620000
 -16.1060000 -34.0460000 -10.1820000 -17.8100000 -33.6080000 -10.3080000
 -17.4250000 -35.7330000 -10.2990000 -17.1490000 -36.4870000 -11.0320000
 -18.0760000 -36.1090000  -9.2040000 -18.3040000 -37.1620000  -9.0600000
 -18.5100000 -35.2030000  -8.0680000 -18.3890000 -34.1480000  -8.3230000
 -19.5720000 -35.3630000  -7.8720000 -17.7220000 -35.4980000  -6.7770000
 -18.1290000 -34.8850000  -5.9700000 -17.8720000 -36.5420000  -6.4970000
 -16.2110000 -35.2150000  -6.9100000 -15.7910000 -35.8430000  -7.6990000
 -16.0590000 -34.1740000  -7.2030000 -15.4550000 -35.4900000  -5.5980000
 -15.8380000 -34.8300000  -4.8170000 -15.6490000 -36.5180000  -5.2860000
 -13.9350000 -35.2840000  -5.7390000 -13.5740000 -35.8820000  -6.5790000
 -13.7270000 -34.2380000  -5.9700000 -13.1720000 -35.6940000  -4.4660000
 -13.4730000 -35.0470000  -3.6390000 -13.4420000 -36.7180000  -4.2000000
 -11.6470000 -35.6070000  -4.6350000 -11.3400000 -36.2340000  -5.4750000
 -11.3690000 -34.5770000  -4.8710000 -10.8970000 -36.0570000  -3.3700000
  -9.8190000 -35.9750000  -3.5190000 -11.1350000 -37.0960000  -3.1340000
 -11.1760000 -35.4350000  -2.5170000 -28.9410000 -24.8070000   2.5870000
 -29.1340000 -24.9630000   3.6500000 -27.8980000 -24.5090000   2.4620000
 -29.0900000 -25.7540000   2.0640000 -29.8810000 -23.7310000   2.0240000
 -29.7810000 -22.8210000   2.6200000 -30.9150000 -24.0680000   2.1190000
 -29.5810000 -23.4160000   0.5480000 -29.7190000 -24.3270000  -0.0380000
 -28.5360000 -23.1140000   0.4460000 -30.4880000 -22.2970000  -0.0010000
 -30.3640000 -21.4020000   0.6110000 -31.5320000 -22.6060000   0.0850000
 -30.1970000 -21.9360000  -1.4700000 -29.1660000 -21.5890000  -1.5610000
 -30.8450000 -21.1050000  -1.7580000 -30.4300000 -23.1120000  -2.4380000
 -31.4400000 -23.5000000  -2.2980000 -29.7320000 -23.9200000  -2.2110000
 -30.2440000 -22.6980000  -3.9060000 -29.2260000 -22.3310000  -4.0510000
 -30.9270000 -21.8770000  -4.1340000 -30.5050000 -23.8760000  -4.8630000
 -31.5450000 -24.1950000  -4.7720000 -29.8810000 -24.7210000  -4.5630000
 -30.2000000 -23.5440000  -6.3350000 -30.3420000 -24.4460000  -6.9330000
 -29.1480000 -23.2620000  -6.4210000 -31.0770000 -22.4170000  -6.9120000
 -30.9210000 -21.4970000  -6.3440000 -32.1300000 -22.6910000  -6.8170000
 -30.7470000 -22.1500000  -8.3890000 -30.9190000 -23.0590000  -8.9680000
 -29.6870000 -21.9020000  -8.4690000 -31.5910000 -21.0030000  -8.9760000
 -31.3830000 -20.0810000  -8.4290000 -32.6500000 -21.2290000  -8.8330000
 -31.3400000 -20.7680000 -10.4780000 -31.9680000 -19.9380000 -10.8100000
 -31.6620000 -21.6540000 -11.0280000 -29.8670000 -20.4570000 -10.8200000
 -29.2340000 -21.3060000 -10.5540000 -29.5300000 -19.6070000 -10.2220000
 -29.6620000 -20.1310000 -12.3120000 -28.6190000 -19.8660000 -12.4950000
 -30.2680000 -19.2630000 -12.5800000 -30.0260000 -21.2930000 -13.2070000
 -29.6720000 -22.4420000 -13.0070000 -30.8040000 -20.9090000 -14.2400000
 -31.2330000 -21.8810000 -15.2400000 -32.1660000 -21.5080000 -15.6720000
 -31.4370000 -22.8470000 -14.7710000 -30.1850000 -22.0330000 -16.3790000
 -29.8010000 -21.0460000 -16.6450000 -30.8190000 -22.6490000 -17.6490000
 -31.8350000 -22.2610000 -17.7620000 -30.8780000 -23.7370000 -17.5580000
 -30.0780000 -22.2720000 -18.8460000 -28.8470000 -23.1450000 -19.4400000
 -27.5720000 -22.6690000 -18.5770000 -26.9660000 -21.3810000 -18.8050000
 -27.6390000 -20.6090000 -18.4240000 -26.8190000 -21.2160000 -19.8750000
 -25.6080000 -21.3140000 -18.0630000 -25.7600000 -21.5660000 -17.0130000
 -25.2380000 -20.2880000 -18.1120000 -24.4710000 -22.1790000 -18.5570000
 -24.1410000 -21.8670000 -19.9800000 -25.0080000 -22.1020000 -20.5990000
 -23.2880000 -22.4780000 -20.2800000 -23.8900000 -20.8080000 -20.0520000
 -23.2610000 -21.8950000 -17.7290000 -23.4920000 -22.0890000 -16.6810000
 -22.9830000 -20.8500000 -17.8720000 -22.4460000 -22.5390000 -18.0640000
 -24.7700000 -23.6380000 -18.4410000 -24.9470000 -23.8800000 -17.3920000
 -23.9180000 -24.2030000 -18.8220000 -25.6600000 -23.8550000 -19.0340000
 -29.0910000 -24.5860000 -19.1650000 -28.6420000 -22.7280000 -20.8550000
 -29.1190000 -22.9200000 -15.9500000 -27.9610000 -22.4010000 -15.5060000
 -27.7410000 -21.2060000 -15.3900000 -26.9680000 -23.4880000 -15.1600000
 -27.4990000 -24.2920000 -14.6470000 -26.5750000 -23.9050000 -16.0890000
 -25.8210000 -22.9840000 -14.2630000 -25.3160000 -22.1440000 -14.7440000
 -26.2460000 -22.6210000 -13.3250000 -24.7900000 -24.0940000 -13.9820000
 -25.2980000 -24.9670000 -13.5680000 -24.3390000 -24.4020000 -14.9270000
 -23.6670000 -23.6630000 -13.0180000 -22.9110000 -24.4510000 -12.9940000
 -23.1810000 -22.7630000 -13.4010000 -24.1670000 -23.4120000 -11.5820000
 -24.8900000 -22.5940000 -11.5830000 -24.6820000 -24.3050000 -11.2220000
 -23.0170000 -23.0700000 -10.6150000 -22.2630000 -23.8580000 -10.6630000
 -22.5370000 -22.1440000 -10.9380000 -23.4840000 -22.9240000  -9.1550000
 -23.8930000 -23.8760000  -8.8100000 -22.6080000 -22.7090000  -8.5400000
 -24.4840000 -21.7950000  -8.9930000 -24.1590000 -20.8380000  -9.3930000
 -25.6720000 -21.8750000  -8.4020000 -26.2940000 -20.9860000  -8.3370000
 -26.2830000 -23.1280000  -7.8120000 -27.3680000 -23.0100000  -7.7660000
 -26.0930000 -23.9830000  -8.4640000 -25.7390000 -23.4320000  -6.4030000
 -26.1920000 -24.3590000  -6.0440000 -24.6640000 -23.6110000  -6.4810000
 -26.0050000 -22.3140000  -5.3730000 -25.5860000 -21.3720000  -5.7310000
 -27.0840000 -22.1710000  -5.2780000 -25.4180000 -22.6240000  -3.9810000
 -25.7570000 -21.8570000  -3.2810000 -25.8190000 -23.5780000  -3.6310000
 -23.8740000 -22.6670000  -3.9690000 -23.5240000 -23.4860000  -4.6010000
 -23.4900000 -21.7410000  -4.4030000 -23.2670000 -22.8390000  -2.5630000
 -22.1790000 -22.7930000  -2.6480000 -23.5760000 -22.0040000  -1.9300000
 -23.6600000 -24.1680000  -1.8900000 -24.7380000 -24.1880000  -1.7140000
 -23.4200000 -24.9990000  -2.5560000 -22.9360000 -24.3780000  -0.5510000
 -23.2660000 -25.3090000  -0.0860000 -23.1500000 -23.5530000   0.1330000
 -21.8570000 -24.4320000  -0.7060000 -17.3040000 -45.6830000  -1.7620000
 -18.3280000 -45.8560000  -1.4240000 -16.6570000 -46.4290000  -1.2950000
 -17.2740000 -45.8220000  -2.8450000 -16.8540000 -44.2630000  -1.3780000
 -16.9860000 -44.1310000  -0.3020000 -17.5030000 -43.5330000  -1.8670000
 -15.3790000 -43.9720000  -1.7170000 -14.7460000 -44.6730000  -1.1690000
 -15.1290000 -42.9720000  -1.3540000 -15.0300000 -44.0590000  -3.2150000
 -15.2160000 -45.0710000  -3.5800000 -13.9610000 -43.8650000  -3.3300000
 -15.8000000 -43.0530000  -4.0840000 -15.6500000 -42.0490000  -3.6820000
 -16.8700000 -43.2670000  -4.0410000 -15.3410000 -43.0860000  -5.5540000
 -15.5670000 -44.0620000  -5.9880000 -14.2610000 -42.9380000  -5.6070000
 -16.0460000 -41.9820000  -6.3570000 -15.8080000 -41.0150000  -5.9080000
 -17.1250000 -42.1300000  -6.2750000 -15.6840000 -41.9480000  -7.8500000
 -16.0970000 -42.8320000  -8.3400000 -14.5990000 -41.9740000  -7.9720000
 -16.2400000 -40.6710000  -8.5100000 -15.6900000 -39.8090000  -8.1280000
 -17.2870000 -40.5400000  -8.2280000 -16.1450000 -40.7020000 -10.0440000
 -16.8310000 -41.4620000 -10.4220000 -15.1330000 -40.9920000 -10.3370000
 -16.4820000 -39.3320000 -10.6640000 -15.6740000 -38.6350000 -10.4340000
 -17.3860000 -38.9350000 -10.1960000 -16.7010000 -39.3640000 -12.1900000
 -16.7280000 -38.3350000 -12.5540000 -17.6770000 -39.8030000 -12.4070000
 -15.6230000 -40.1500000 -12.9570000 -15.7150000 -41.2150000 -12.7310000
 -14.6390000 -39.8270000 -12.6100000 -15.7200000 -39.9410000 -14.4790000
 -15.7190000 -38.8690000 -14.6850000 -16.6690000 -40.3380000 -14.8450000
 -14.5490000 -40.5810000 -15.2540000 -14.5970000 -40.2710000 -16.3000000
 -13.6010000 -40.2170000 -14.8520000 -14.5650000 -42.0910000 -15.2050000
 -13.8090000 -42.7580000 -14.5210000 -15.5090000 -42.6100000 -16.0090000
 -15.6090000 -44.0600000 -16.1270000 -15.7500000 -44.4840000 -15.1290000
 -14.6870000 -44.4610000 -16.5550000 -16.8120000 -44.4660000 -17.0190000
 -17.0620000 -45.5090000 -16.8080000 -16.5100000 -44.3890000 -18.5360000
 -17.4390000 -44.5200000 -19.0960000 -15.8380000 -45.2100000 -18.7990000
 -15.8640000 -43.1490000 -18.9290000 -16.5760000 -42.0970000 -19.9230000
 -17.7070000 -41.4200000 -19.0040000 -17.3350000 -40.6250000 -17.8640000
 -16.2600000 -40.4270000 -17.8700000 -17.5680000 -41.1930000 -16.9600000
 -18.1340000 -39.3000000 -17.8660000 -17.9540000 -38.7860000 -16.9210000
 -19.1980000 -39.5310000 -17.9290000 -17.8490000 -38.2830000 -18.9510000
 -18.2700000 -38.7800000 -20.2940000 -17.6550000 -39.6470000 -20.5400000
 -18.1190000 -37.9890000 -21.0300000 -19.3210000 -39.0710000 -20.2490000
 -18.6280000 -37.0410000 -18.6590000 -18.3310000 -36.6580000 -17.6820000
 -19.6910000 -37.2830000 -18.6640000 -18.4120000 -36.3030000 -19.4330000
 -16.3970000 -37.9280000 -18.9890000 -16.0890000 -37.5800000 -18.0020000
 -16.2480000 -37.1440000 -19.7330000 -15.8350000 -38.8180000 -19.2740000
 -15.5840000 -41.0540000 -20.2960000 -17.2560000 -42.8490000 -21.0140000
 -17.9490000 -43.6260000 -16.6780000 -18.7470000 -44.0480000 -15.6870000
 -19.1220000 -45.2010000 -15.5870000 -19.0660000 -42.9500000 -14.7060000
 -18.2200000 -42.2600000 -14.6810000 -19.9390000 -42.3890000 -15.0490000
 -19.2990000 -43.5230000 -13.2940000 -20.2950000 -43.9690000 -13.2470000
 -18.5790000 -44.3210000 -13.1040000 -19.1450000 -42.4910000 -12.1670000
 -19.3430000 -42.9920000 -11.2170000 -18.1090000 -42.1490000 -12.1370000
 -20.0750000 -41.2740000 -12.2880000 -19.6900000 -40.5910000 -13.0480000
 -21.0660000 -41.6000000 -12.6120000 -20.1920000 -40.5570000 -10.9300000
 -20.7420000 -41.2030000 -10.2430000 -19.1960000 -40.4150000 -10.5070000
 -20.8890000 -39.1880000 -11.0250000 -20.2820000 -38.5220000 -11.6410000
 -21.8560000 -39.3000000 -11.5200000 -21.0970000 -38.5450000  -9.6420000
 -20.1350000 -38.4550000  -9.1330000 -21.4760000 -37.5320000  -9.7940000
 -22.1070000 -39.3320000  -8.8290000 -23.0430000 -39.5250000  -9.3470000
 -21.9650000 -39.7860000  -7.5880000 -22.7870000 -40.3360000  -7.1370000
 -20.7580000 -39.6170000  -6.6870000 -19.8920000 -39.2290000  -7.2260000
 -21.0060000 -38.9000000  -5.9020000 -20.3930000 -40.9620000  -6.0360000
 -21.2650000 -41.3640000  -5.5150000 -20.1330000 -41.6720000  -6.8240000
 -19.2140000 -40.8700000  -5.0500000 -18.9550000 -41.8810000  -4.7280000
 -18.3460000 -40.4580000  -5.5680000 -19.5010000 -40.0090000  -3.8070000
 -19.5900000 -38.9610000  -4.1020000 -20.4530000 -40.3100000  -3.3670000
 -18.3880000 -40.1480000  -2.7520000 -18.3340000 -41.1900000  -2.4280000
 -17.4250000 -39.8940000  -3.1990000 -18.6410000 -39.2330000  -1.5400000
 -18.6200000 -38.1950000  -1.8790000 -19.6430000 -39.4170000  -1.1460000
 -17.6110000 -39.4080000  -0.4090000 -16.6010000 -39.3340000  -0.8180000
 -17.7290000 -38.5860000   0.3010000 -17.7650000 -40.7340000   0.3530000
 -17.0350000 -40.7990000   1.1630000 -17.6090000 -41.5860000  -0.3120000
 -18.7630000 -40.8050000   0.7910000 -33.7310000 -33.4270000  -3.9250000
 -33.5410000 -34.0590000  -3.0560000 -32.8150000 -33.3770000  -4.5180000
 -34.5130000 -33.8920000  -4.5290000 -34.1700000 -32.0240000  -3.4740000
 -33.3430000 -31.5430000  -2.9480000 -34.9910000 -32.1240000  -2.7610000
 -34.6330000 -31.1230000  -4.6350000 -34.9330000 -30.1550000  -4.2290000
 -35.5180000 -31.5640000  -5.0980000 -33.5530000 -30.9030000  -5.7120000
 -33.2940000 -31.8590000  -6.1710000 -32.6550000 -30.5030000  -5.2370000
 -34.0350000 -29.9360000  -6.8070000 -34.1830000 -28.9430000  -6.3780000
 -35.0090000 -30.2780000  -7.1650000 -33.1050000 -29.8370000  -8.0300000
 -33.6250000 -29.2540000  -8.7940000 -32.9530000 -30.8310000  -8.4550000
 -31.7350000 -29.1820000  -7.7740000 -31.8170000 -28.4260000  -6.9900000
 -31.4530000 -28.6600000  -8.6910000 -30.6270000 -30.1980000  -7.4270000
 -30.6500000 -31.0160000  -8.1490000 -30.8300000 -30.6430000  -6.4510000
 -29.2120000 -29.5820000  -7.4030000 -28.5000000 -30.3570000  -7.1120000
 -29.1720000 -28.8160000  -6.6250000 -28.7580000 -28.9500000  -8.7380000
 -27.7160000 -28.6380000  -8.6420000 -29.3370000 -28.0410000  -8.9150000
 -28.8960000 -29.8660000  -9.9720000 -28.6510000 -29.2830000 -10.8620000
 -29.9370000 -30.1790000 -10.0830000 -27.9820000 -31.1070000  -9.9250000
 -28.0560000 -31.5890000  -8.9480000 -26.9440000 -30.7870000 -10.0450000
 -28.3200000 -32.1580000 -11.0000000 -29.2850000 -32.6060000 -10.7520000
 -27.5740000 -32.9540000 -10.9500000 -28.3660000 -31.5940000 -12.4370000
 -27.4630000 -31.0010000 -12.5980000 -29.2170000 -30.9190000 -12.5460000
 -28.4260000 -32.6740000 -13.5400000 -28.2210000 -32.1930000 -14.4980000
 -27.6380000 -33.4140000 -13.3810000 -29.7580000 -33.3910000 -13.6450000
 -30.3770000 -33.8310000 -12.6950000 -30.1620000 -33.5160000 -14.9290000
 -31.4140000 -34.2190000 -15.2090000 -31.6170000 -34.9830000 -14.4540000
 -31.3030000 -34.7300000 -16.1690000 -32.6100000 -33.2350000 -15.3260000
 -33.5170000 -33.8100000 -15.5290000 -32.4010000 -32.2350000 -16.4900000
 -31.5440000 -32.5290000 -17.1010000 -32.2060000 -31.2410000 -16.0780000
 -33.5870000 -32.1700000 -17.3300000 -33.9160000 -33.2990000 -18.4350000
 -32.9580000 -32.8810000 -19.6420000 -33.2810000 -31.7480000 -20.4660000
 -33.6240000 -30.9220000 -19.8380000 -34.0880000 -32.0240000 -21.1500000
 -32.0250000 -31.3280000 -21.2640000 -32.2830000 -30.4630000 -21.8770000
 -31.7350000 -32.1400000 -21.9320000 -30.7810000 -30.9430000 -20.4950000
 -30.0630000 -32.1560000 -19.9970000 -30.7340000 -32.7120000 -19.3420000
 -29.1710000 -31.8400000 -19.4540000 -29.7880000 -32.7720000 -20.8550000
 -29.8560000 -30.2130000 -21.4110000 -30.3520000 -29.3050000 -21.7590000
 -29.6170000 -30.8600000 -22.2560000 -28.9480000 -29.9580000 -20.8620000
 -31.0950000 -30.0480000 -19.3390000 -31.5980000 -29.1560000 -19.7140000
 -30.1620000 -29.7750000 -18.8440000 -31.7440000 -30.5870000 -18.6470000
 -33.4640000 -34.6180000 -17.9300000 -35.3290000 -33.1410000 -18.8590000
 -32.7950000 -32.4740000 -14.0990000 -33.5470000 -33.0200000 -13.1200000
 -34.0410000 -34.1350000 -13.1800000 -33.7140000 -32.0810000 -11.9460000
 -32.8980000 -31.3550000 -11.9440000 -34.6400000 -31.5190000 -12.0880000
 -33.7550000 -32.8080000 -10.5870000 -33.9910000 -32.0770000  -9.8110000
 -34.5570000 -33.5490000 -10.5810000 -32.4150000 -33.4890000 -10.2540000
 -32.2810000 -34.3460000 -10.9170000 -31.6020000 -32.7870000 -10.4510000
 -32.3040000 -33.9620000  -8.7960000 -32.3210000 -33.0900000  -8.1380000
 -33.1630000 -34.5870000  -8.5420000 -31.0060000 -34.7650000  -8.5810000
 -31.0670000 -35.6850000  -9.1660000 -30.1560000 -34.1990000  -8.9700000
 -30.7430000 -35.1370000  -7.1090000 -31.6300000 -35.6230000  -6.6980000
 -29.9350000 -35.8710000  -7.0720000 -30.3630000 -33.9430000  -6.2110000
 -31.1660000 -33.2030000  -6.2210000 -30.2840000 -34.2910000  -5.1790000
 -29.0710000 -33.2890000  -6.6600000 -29.1960000 -32.4660000  -7.3580000
 -27.8450000 -33.6220000  -6.2690000 -26.9960000 -33.0660000  -6.6590000
 -27.4880000 -34.7520000  -5.3250000 -28.3790000 -35.2160000  -4.8950000
 -26.9760000 -35.5300000  -5.8950000 -26.5410000 -34.2930000  -4.2000000
 -26.2960000 -35.1530000  -3.5740000 -25.6060000 -33.9490000  -4.6470000
 -27.0950000 -33.1750000  -3.2950000 -26.3440000 -32.9420000  -2.5370000
 -27.2400000 -32.2740000  -3.8960000 -28.4190000 -33.5360000  -2.5930000
 -29.2040000 -33.6800000  -3.3380000 -28.2960000 -34.4830000  -2.0630000
 -28.8800000 -32.4720000  -1.5790000 -29.8480000 -32.7720000  -1.1710000
 -28.1780000 -32.4590000  -0.7440000 -28.9940000 -31.0410000  -2.1420000
 -29.3030000 -30.3830000  -1.3270000 -28.0110000 -30.6920000  -2.4670000
 -29.9930000 -30.8820000  -3.3030000 -29.6790000 -31.4880000  -4.1550000
 -30.9770000 -31.2350000  -2.9880000 -30.0980000 -29.4110000  -3.7420000
 -30.8310000 -29.3000000  -4.5430000 -29.1320000 -29.0520000  -4.1040000
 -30.4090000 -28.7840000  -2.9030000 -36.1920000  17.1990000  -2.2190000
 -36.3850000  16.4610000  -1.4370000 -36.9900000  17.9440000  -2.1880000
 -35.2420000  17.6910000  -2.0020000 -36.1440000  16.5120000  -3.5930000
 -37.1160000  16.0530000  -3.7900000 -35.4120000  15.7020000  -3.5550000
 -35.7690000  17.4600000  -4.7490000 -35.6730000  16.8740000  -5.6660000
 -34.7840000  17.8850000  -4.5440000 -36.7610000  18.6150000  -5.0010000
 -36.3190000  19.2670000  -5.7570000 -36.8710000  19.2120000  -4.0930000
 -38.1510000  18.1450000  -5.4840000 -38.5750000  17.4580000  -4.7500000
 -38.0380000  17.5920000  -6.4180000 -39.1580000  19.2950000  -5.6960000
 -39.3330000  19.7920000  -4.7400000 -40.1130000  18.8700000  -6.0120000
 -38.7030000  20.3320000  -6.7410000 -38.5910000  19.8350000  -7.7070000
 -37.7260000  20.7330000  -6.4620000 -39.6810000  21.5130000  -6.8880000
 -39.8250000  21.9830000  -5.9130000 -40.6530000  21.1480000  -7.2270000
 -39.1410000  22.5590000  -7.8820000 -39.0630000  22.1030000  -8.8710000
 -38.1350000  22.8520000  -7.5740000 -40.0180000  23.8230000  -7.9560000
 -40.1520000  24.2080000  -6.9430000 -41.0080000  23.5610000  -8.3340000
 -39.4020000  24.9450000  -8.8200000 -38.4450000  25.2340000  -8.3800000
 -40.0450000  25.8260000  -8.7770000 -39.1680000  24.5720000 -10.2960000
 -38.5070000  23.7030000 -10.3420000 -38.6380000  25.3930000 -10.7830000
 -40.4700000  24.3000000 -11.0790000 -41.0960000  25.1940000 -11.0420000
 -41.0320000  23.4920000 -10.6060000 -40.2170000  23.9390000 -12.5560000
 -39.6120000  24.7200000 -13.0210000 -41.1740000  23.9130000 -13.0820000
 -39.5150000  22.5750000 -12.7140000 -40.1300000  21.7820000 -12.2850000
 -38.5700000  22.5810000 -12.1660000 -39.2230000  22.2340000 -14.1550000
 -40.0470000  22.2440000 -15.0540000 -37.9300000  21.9060000 -14.3250000
 -37.4890000  21.3880000 -15.6120000 -37.8020000  22.0640000 -16.4130000
 -37.9300000  20.4020000 -15.7770000 -35.9450000  21.2910000 -15.6030000
 -35.5390000  22.3040000 -15.5450000 -35.3840000  20.6410000 -16.8880000
 -34.2990000  20.5670000 -16.7800000 -35.6040000  21.2680000 -17.7560000
 -35.9480000  19.3170000 -17.1030000 -35.2190000  18.2400000 -18.0600000
 -35.6870000  18.6950000 -19.5270000 -37.0260000  18.4310000 -19.9850000
 -37.7400000  19.0120000 -19.3950000 -37.2470000  17.3690000 -19.8510000
 -37.1270000  18.7690000 -21.4910000 -38.1060000  18.4500000 -21.8520000
 -36.3660000  18.2040000 -22.0310000 -36.9750000  20.2080000 -21.9270000
 -37.9380000  21.0970000 -21.2070000 -38.9490000  20.7200000 -21.3690000
 -37.8430000  22.1070000 -21.6090000 -37.6920000  21.0910000 -20.1450000
 -35.5860000  20.7090000 -21.7090000 -34.8960000  20.0630000 -22.2550000
 -35.3670000  20.6670000 -20.6410000 -35.5190000  21.7350000 -22.0730000
 -37.2660000  20.2950000 -23.3890000 -36.5610000  19.6570000 -23.9230000
 -37.1510000  21.3320000 -23.7070000 -38.2890000  19.9580000 -23.5640000
 -33.7470000  18.4320000 -17.9740000 -35.7770000  16.8900000 -17.7740000
 -35.5360000  20.4930000 -14.4510000 -35.0230000  21.1230000 -13.3770000
 -34.5920000  22.2620000 -13.3840000 -35.0480000  20.2760000 -12.1320000
 -34.9860000  19.2190000 -12.3990000 -34.1730000  20.5240000 -11.5270000
 -36.3460000  20.5550000 -11.3500000 -36.4820000  21.6330000 -11.2460000
 -37.1920000  20.1900000 -11.9360000 -36.3950000  19.9050000  -9.9560000
 -37.3770000  20.1130000  -9.5250000 -36.3190000  18.8210000 -10.0610000
 -35.3140000  20.3900000  -8.9670000 -35.5280000  19.9530000  -7.9890000
 -34.3370000  20.0110000  -9.2760000 -35.2410000  21.9240000  -8.8300000
 -34.8230000  22.3510000  -9.7440000 -36.2510000  22.3230000  -8.7140000
 -34.3810000  22.3600000  -7.6270000 -34.8500000  21.9990000  -6.7090000
 -33.4020000  21.8810000  -7.6960000 -34.1720000  23.8850000  -7.5210000
 -33.5820000  24.1040000  -6.6290000 -33.5790000  24.2230000  -8.3740000
 -35.4740000  24.6600000  -7.4900000 -35.7780000  25.0810000  -8.4440000
 -36.2190000  24.8930000  -6.4140000 -37.1250000  25.4840000  -6.5160000
 -35.9700000  24.3500000  -5.0230000 -35.0960000  23.6960000  -5.0010000
 -35.7810000  25.1780000  -4.3360000 -37.2050000  23.5750000  -4.5370000
 -38.0520000  24.2590000  -4.4520000 -37.4650000  22.8250000  -5.2860000
 -36.9760000  22.8650000  -3.1910000 -36.1220000  22.1910000  -3.2890000
 -36.7300000  23.6020000  -2.4240000 -38.2150000  22.0570000  -2.7620000
 -39.0170000  22.7410000  -2.4760000 -38.5750000  21.4860000  -3.6210000
 -37.9420000  21.0700000  -1.6110000 -38.8400000  20.4730000  -1.4430000
 -37.1490000  20.3830000  -1.9160000 -37.5510000  21.7640000  -0.2940000
 -36.6300000  22.3350000  -0.4320000 -38.3390000  22.4710000  -0.0280000
 -37.3680000  20.7920000   0.8850000 -37.1900000  21.3800000   1.7880000
 -38.2930000  20.2330000   1.0400000 -36.2020000  19.8060000   0.7000000
 -36.0790000  19.1960000   1.5980000 -35.2700000  20.3440000   0.5180000
 -36.3900000  19.1370000  -0.1420000 -11.5590000  33.4640000   0.7960000
 -11.2200000  32.6080000   1.3830000 -11.9070000  34.2380000   1.4830000
 -10.7060000  33.8510000   0.2350000 -12.6920000  33.0390000  -0.1530000
 -13.4890000  32.5850000   0.4400000 -12.3220000  32.2640000  -0.8270000
 -13.2870000  34.2020000  -0.9750000 -13.7600000  34.9090000  -0.2900000
 -14.0820000  33.8130000  -1.6140000 -12.2740000  34.9710000  -1.8480000
 -11.5990000  35.5270000  -1.1940000 -12.8240000  35.7090000  -2.4380000
 -11.4240000  34.1060000  -2.7990000 -10.8700000  33.3750000  -2.2060000
 -10.6760000  34.7360000  -3.2850000 -12.2380000  33.3550000  -3.8690000
 -13.1120000  32.8900000  -3.4080000 -11.6210000  32.5400000  -4.2530000
 -12.6920000  34.2090000  -5.0680000 -13.1830000  35.1210000  -4.7230000
 -13.4300000  33.6320000  -5.6290000 -11.5270000  34.5580000  -6.0120000
 -10.9460000  33.6520000  -6.1980000 -10.8600000  35.2770000  -5.5310000
 -12.0020000  35.1170000  -7.3660000 -12.5110000  36.0720000  -7.2210000
 -12.7190000  34.4210000  -7.8050000 -10.8160000  35.2950000  -8.3320000
 -10.2340000  34.3710000  -8.3380000 -10.1620000  36.0880000  -7.9650000
 -11.2450000  35.6060000  -9.7790000 -11.7320000  36.5830000  -9.8240000
 -11.9700000  34.8580000 -10.1050000 -10.0300000  35.5760000 -10.7250000
  -9.4910000  34.6400000 -10.5640000  -9.3480000  36.3890000 -10.4680000
 -10.4050000  35.6710000 -12.2160000 -10.8400000  36.6500000 -12.4290000
 -11.1580000  34.9140000 -12.4450000  -9.1680000  35.4370000 -13.1030000
  -8.7030000  34.4950000 -12.8050000  -8.4400000  36.2310000 -12.9240000
  -9.4960000  35.3710000 -14.6080000  -9.9020000  36.3270000 -14.9460000
 -10.2630000  34.6140000 -14.7860000  -8.2860000  35.0160000 -15.4480000
  -7.2030000  34.6780000 -14.9890000  -8.5490000  35.1000000 -16.7700000
  -7.6700000  34.3940000 -17.7000000  -6.6360000  34.4210000 -17.3470000
  -7.7030000  34.9160000 -18.6590000  -8.1220000  32.9200000 -17.9310000
  -7.3560000  32.4300000 -18.5370000  -9.4740000  32.8540000 -18.6960000
  -9.6250000  31.8470000 -19.0940000  -9.4350000  33.5430000 -19.5430000
 -10.6110000  33.1970000 -17.8550000 -12.0920000  33.3120000 -18.4840000
 -12.4700000  31.7770000 -18.7720000 -12.8510000  30.8940000 -17.7020000
 -13.9410000  30.8480000 -17.6350000 -12.4610000  31.2830000 -16.7580000
 -12.2270000  29.5000000 -17.9520000 -12.4390000  28.8620000 -17.0920000
 -11.1450000  29.6090000 -18.0350000 -12.6640000  28.7150000 -19.1680000
 -12.2320000  29.3710000 -20.4370000 -12.7290000  30.3400000 -20.5070000
 -12.5170000  28.7370000 -21.2780000 -11.1500000  29.5080000 -20.4070000
 -12.0250000  27.3680000 -19.1150000 -12.3840000  26.8460000 -18.2270000
 -10.9420000  27.4950000 -19.0730000 -12.3080000  26.8140000 -20.0120000
 -14.1440000  28.5210000 -19.1970000 -14.4440000  27.9800000 -18.2990000
 -14.3980000  27.9390000 -20.0840000 -14.6290000  29.4980000 -19.2460000
 -13.0240000  33.8380000 -17.4510000 -12.0090000  34.0090000 -19.7970000
  -8.2150000  32.2380000 -16.6450000  -8.3800000  30.9020000 -16.6020000
  -8.4160000  30.1780000 -17.5830000  -8.5110000  30.4210000 -15.1740000
  -7.5170000  30.3840000 -14.7230000  -9.0880000  31.1680000 -14.6250000
  -9.1970000  29.0410000 -15.0550000 -10.1820000  29.0900000 -15.5240000
  -8.6130000  28.3000000 -15.6050000  -9.3610000  28.5550000 -13.5990000
  -9.8440000  27.5760000 -13.6100000  -8.3760000  28.4250000 -13.1450000
 -10.1980000  29.5210000 -12.7390000  -9.6650000  30.4690000 -12.6360000
 -11.1390000  29.7300000 -13.2530000 -10.5090000  28.9830000 -11.3300000
 -11.0740000  28.0520000 -11.4110000  -9.5780000  28.7660000 -10.8020000
 -11.3270000  30.0200000 -10.5390000 -10.7390000  30.9350000 -10.4370000
 -12.2210000  30.2730000 -11.1110000 -11.7560000  29.5450000  -9.1400000
 -12.3470000  28.6330000  -9.2490000 -10.8700000  29.3080000  -8.5470000
 -12.5970000  30.6190000  -8.4810000 -13.1970000  31.2110000  -9.1670000
 -12.6050000  30.9360000  -7.1910000 -13.2290000  31.7610000  -6.8570000
 -11.8810000  30.2040000  -6.0800000 -11.4110000  29.2860000  -6.4390000
 -11.0920000  30.8460000  -5.6820000 -12.8770000  29.8600000  -4.9570000
 -13.3760000  30.7700000  -4.6160000 -13.6490000  29.2110000  -5.3750000
 -12.2480000  29.1420000  -3.7510000 -13.0580000  28.7910000  -3.1080000
 -11.7170000  28.2590000  -4.1140000 -11.2910000  30.0170000  -2.9160000
 -10.4480000  30.3260000  -3.5370000 -11.8170000  30.9220000  -2.6070000
 -10.7440000  29.3180000  -1.6560000 -10.2320000  28.3990000  -1.9480000
  -9.9980000  29.9750000  -1.2040000 -11.8310000  28.9870000  -0.6110000
 -12.3620000  29.9000000  -0.3370000 -12.5650000  28.3080000  -1.0520000
 -11.2790000  28.3220000   0.6640000 -12.1200000  28.0470000   1.3030000
 -10.7610000  27.3980000   0.3950000 -10.3240000  29.2170000   1.4700000
 -10.0290000  28.7150000   2.3940000 -10.8120000  30.1590000   1.7320000
  -9.4200000  29.4370000   0.8980000  -5.6680000 -34.5580000  -1.6170000
  -5.5660000 -34.7320000  -0.5430000  -5.0270000 -33.7180000  -1.8920000
  -5.3210000 -35.4510000  -2.1410000  -7.1360000 -34.2540000  -1.9620000
  -7.4860000 -33.4430000  -1.3200000  -7.7480000 -35.1300000  -1.7380000
  -7.3540000 -33.8490000  -3.4310000  -6.7670000 -32.9540000  -3.6460000
  -8.4070000 -33.5830000  -3.5490000  -6.9830000 -34.9590000  -4.4370000
  -7.5660000 -35.8560000  -4.2190000  -5.9300000 -35.2210000  -4.3160000
  -7.2090000 -34.5500000  -5.9050000  -6.8540000 -35.3520000  -6.5550000
  -6.5980000 -33.6720000  -6.1230000  -8.6850000 -34.2490000  -6.2330000
  -9.0310000 -33.4090000  -5.6270000  -9.2930000 -35.1190000  -5.9760000
  -8.9050000 -33.9090000  -7.7150000  -8.6960000 -34.7920000  -8.3220000
  -8.1960000 -33.1310000  -8.0070000 -10.3350000 -33.4010000  -7.9870000
 -10.5350000 -32.5520000  -7.3300000 -11.0570000 -34.1800000  -7.7360000
 -10.5450000 -32.9480000  -9.4450000  -9.7560000 -32.2420000  -9.7130000
 -11.4970000 -32.4170000  -9.5130000 -10.5600000 -34.1230000 -10.4390000
 -11.3180000 -34.8360000 -10.1080000  -9.6000000 -34.6430000 -10.4120000
 -10.8770000 -33.7320000 -11.8980000 -11.8260000 -33.1960000 -11.9460000
 -11.0160000 -34.6600000 -12.4580000  -9.7700000 -32.9220000 -12.6070000
  -9.7560000 -33.2330000 -13.6540000  -8.7970000 -33.1840000 -12.1860000
  -9.9710000 -31.3920000 -12.5570000 -10.0860000 -31.0700000 -11.5200000
 -10.8970000 -31.1320000 -13.0750000  -8.7980000 -30.6070000 -13.1810000
  -7.8800000 -30.8650000 -12.6480000  -8.9730000 -29.5410000 -13.0230000
  -8.6080000 -30.8700000 -14.6920000  -9.5030000 -30.5660000 -15.2390000
  -8.4660000 -31.9380000 -14.8720000  -7.4170000 -30.1460000 -15.2810000
  -6.7900000 -29.2600000 -14.7270000  -7.1130000 -30.6150000 -16.5070000
  -5.9440000 -30.0600000 -17.1810000  -5.0670000 -30.1800000 -16.5410000
  -6.1060000 -28.9950000 -17.3650000  -5.6830000 -30.7830000 -18.5250000
  -4.8190000 -30.3100000 -18.9990000  -6.8870000 -30.6410000 -19.4880000
  -6.9320000 -29.6210000 -19.8770000  -7.8110000 -30.8350000 -18.9360000
  -6.7700000 -31.5720000 -20.6000000  -7.9600000 -32.5930000 -20.9890000
  -8.0540000 -33.5780000 -19.7160000  -9.0860000 -33.4180000 -18.7210000
 -10.0330000 -33.7780000 -19.1310000  -9.1950000 -32.3600000 -18.4710000
  -8.7000000 -34.1840000 -17.4350000  -9.4220000 -33.9390000 -16.6550000
  -7.7190000 -33.8340000 -17.1100000  -8.6410000 -35.6950000 -17.4840000
  -7.6540000 -36.1920000 -18.4820000  -7.9690000 -35.8600000 -19.4720000
  -7.6420000 -37.2820000 -18.4380000  -6.6680000 -35.7870000 -18.2470000
  -8.2320000 -36.2090000 -16.1410000  -8.9630000 -35.8840000 -15.4000000
  -7.2440000 -35.8170000 -15.8970000  -8.2000000 -37.2990000 -16.1880000
  -9.9780000 -36.2740000 -17.8100000 -10.6970000 -35.9540000 -17.0540000
  -9.8870000 -37.3610000 -17.8220000 -10.2820000 -35.9120000 -18.7930000
  -9.2270000 -31.8200000 -21.1130000  -7.5050000 -33.3970000 -22.1570000
  -5.4220000 -32.1920000 -18.2540000  -4.2380000 -32.7350000 -18.6040000
  -3.3360000 -32.1320000 -19.1630000  -4.0940000 -34.1860000 -18.1840000
  -4.5370000 -34.8100000 -18.9630000  -3.0320000 -34.4350000 -18.1250000
  -4.7780000 -34.5080000 -16.8380000  -5.8500000 -34.3390000 -16.9620000
  -4.6560000 -35.5700000 -16.6130000  -4.2780000 -33.6800000 -15.6370000
  -3.4820000 -34.2280000 -15.1290000  -3.8570000 -32.7320000 -15.9790000
  -5.4240000 -33.3740000 -14.6540000  -6.2190000 -32.8580000 -15.1970000
  -5.8510000 -34.3060000 -14.2790000  -4.9860000 -32.4790000 -13.4800000
  -4.5220000 -31.5730000 -13.8760000  -5.8740000 -32.1590000 -12.9320000
  -4.0060000 -33.1560000 -12.4990000  -3.0750000 -33.3920000 -13.0180000
  -3.7500000 -32.4360000 -11.7190000  -4.5420000 -34.4440000 -11.8370000
  -4.5590000 -35.2460000 -12.5770000  -3.8470000 -34.7640000 -11.0580000
  -5.9360000 -34.2770000 -11.2600000  -6.7250000 -34.7750000 -11.8180000
  -6.2490000 -33.5990000 -10.1610000  -7.2890000 -33.5520000  -9.8490000
  -5.2750000 -32.8370000  -9.2850000  -5.4370000 -33.1000000  -8.2380000
  -4.2460000 -33.1200000  -9.5190000  -5.4200000 -31.3120000  -9.4770000
  -4.5810000 -30.8140000  -8.9880000  -5.3440000 -31.0870000 -10.5420000
  -6.7390000 -30.7170000  -8.9400000  -6.8430000 -29.6960000  -9.3120000
  -7.5860000 -31.2840000  -9.3330000  -6.7900000 -30.6910000  -7.4000000
  -6.6440000 -31.7030000  -7.0160000  -5.9660000 -30.0840000  -7.0210000
  -8.1190000 -30.1430000  -6.8490000  -8.2410000 -29.1010000  -7.1550000
  -8.9490000 -30.7100000  -7.2750000  -8.1720000 -30.2410000  -5.3130000
  -8.0450000 -31.2850000  -5.0180000  -7.3400000 -29.6770000  -4.8860000
  -9.4960000 -29.7120000  -4.7330000  -9.5970000 -28.6510000  -4.9710000
 -10.3330000 -30.2350000  -5.2010000  -9.5750000 -29.9030000  -3.2100000
 -10.5170000 -29.5040000  -2.8270000  -8.7530000 -29.3850000  -2.7120000
  -9.5200000 -30.9640000  -2.9550000 -43.8090000  -6.8640000  -1.1490000
 -42.9550000  -7.3490000  -0.6700000 -43.9240000  -7.2790000  -2.1520000
 -44.7070000  -7.0930000  -0.5710000 -43.5850000  -5.3460000  -1.2160000
 -42.6610000  -5.1490000  -1.7640000 -43.4630000  -4.9460000  -0.2070000
 -44.7550000  -4.6360000  -1.9130000 -45.6780000  -4.8180000  -1.3590000
 -44.8690000  -5.0780000  -2.9050000 -44.5260000  -3.1170000  -2.0370000
 -43.5610000  -2.9450000  -2.5190000 -44.4630000  -2.6810000  -1.0380000
 -45.6210000  -2.3840000  -2.8380000 -45.3140000  -1.3450000  -2.9740000
 -46.5520000  -2.3790000  -2.2680000 -45.8730000  -3.0290000  -4.2140000
 -46.3890000  -3.9810000  -4.0740000 -44.9130000  -3.2450000  -4.6860000
 -46.7060000  -2.1580000  -5.1680000 -46.1820000  -1.2180000  -5.3520000
 -47.6690000  -1.9220000  -4.7100000 -46.9310000  -2.8960000  -6.4990000
 -47.5220000  -3.7950000  -6.3110000 -45.9670000  -3.2180000  -6.8980000
 -47.6430000  -2.0360000  -7.5540000 -47.0490000  -1.1390000  -7.7460000
 -48.6140000  -1.7160000  -7.1710000 -47.8350000  -2.8140000  -8.8680000
 -48.4860000  -3.6730000  -8.6910000 -46.8680000  -3.1980000  -9.1990000
 -48.4320000  -1.9370000  -9.9810000 -47.7950000  -1.0620000 -10.1230000
 -49.4210000  -1.5830000  -9.6810000 -48.5430000  -2.7040000 -11.3100000
 -49.2680000  -3.5130000 -11.2020000 -47.5750000  -3.1550000 -11.5410000
 -48.9570000  -1.7890000 -12.4750000 -48.2680000  -0.9430000 -12.5140000
 -49.9530000  -1.3850000 -12.2870000 -48.9520000  -2.5350000 -13.8250000
 -49.7690000  -3.2600000 -13.8150000 -48.0290000  -3.1090000 -13.9350000
 -49.1240000  -1.6080000 -15.0480000 -49.9210000  -0.8840000 -14.8660000
 -49.4240000  -2.2160000 -15.9040000 -47.8600000  -0.8760000 -15.4440000
 -47.0910000  -0.3490000 -14.6620000 -47.7090000  -0.8510000 -16.7860000
 -46.4290000  -0.4120000 -17.3340000 -45.9260000   0.2860000 -16.6610000
 -46.6240000   0.1140000 -18.2720000 -45.5120000  -1.6270000 -17.6350000
 -44.5560000  -1.2470000 -18.0040000 -46.1460000  -2.5240000 -18.7160000
 -46.4530000  -1.9050000 -19.5640000 -47.0250000  -3.0270000 -18.3040000
 -45.1870000  -3.5110000 -19.1770000 -45.4920000  -4.4180000 -20.4730000
 -44.0700000  -5.1040000 -20.7820000 -43.4980000  -6.0930000 -19.9000000
 -42.8810000  -6.7710000 -20.4940000 -44.2910000  -6.6830000 -19.4330000
 -42.6280000  -5.4110000 -18.8140000 -42.2090000  -6.1880000 -18.1720000
 -43.2560000  -4.7620000 -18.2020000 -41.4570000  -4.5650000 -19.2560000
 -41.9160000  -3.2530000 -19.8010000 -42.5120000  -3.4460000 -20.6940000
 -41.0450000  -2.6450000 -20.0490000 -42.5320000  -2.7670000 -19.0420000
 -40.5890000  -4.2910000 -18.0750000 -40.2000000  -5.2430000 -17.7090000
 -41.1900000  -3.8000000 -17.3080000 -39.7630000  -3.6530000 -18.3900000
 -40.6240000  -5.2600000 -20.2820000 -40.2620000  -6.1960000 -19.8530000
 -39.7810000  -4.6170000 -20.5390000 -41.2410000  -5.4470000 -21.1620000
 -46.4770000  -5.4680000 -20.1010000 -45.8090000  -3.5140000 -21.6120000
 -45.3390000  -2.4170000 -16.4240000 -44.1150000  -2.8760000 -16.1030000
 -43.0990000  -2.6410000 -16.7320000 -44.1050000  -3.7210000 -14.8500000
 -44.6240000  -4.6590000 -15.0600000 -43.0710000  -3.9650000 -14.6010000
 -44.7730000  -3.0370000 -13.6380000 -45.8500000  -2.9820000 -13.8120000
 -44.6270000  -3.6710000 -12.7600000 -44.2460000  -1.6180000 -13.3430000
 -43.1600000  -1.6390000 -13.2280000 -44.4590000  -0.9810000 -14.2040000
 -44.9120000  -0.9870000 -12.1020000 -44.7600000   0.0940000 -12.1290000
 -45.9900000  -1.1520000 -12.1570000 -44.3930000  -1.5230000 -10.7550000
 -45.0530000  -1.1600000  -9.9640000 -44.4470000  -2.6140000 -10.7420000
 -42.9510000  -1.0640000 -10.4570000 -42.2890000  -1.3890000 -11.2630000
 -42.9190000   0.0270000 -10.4370000 -42.3860000  -1.6070000  -9.1340000
 -42.3490000  -2.6970000  -9.1880000 -41.3620000  -1.2430000  -9.0310000
 -43.1960000  -1.1480000  -7.9390000 -43.7570000  -0.2280000  -8.0860000
 -43.3050000  -1.7960000  -6.7840000 -43.9390000  -1.3840000  -6.0020000
 -42.5720000  -3.0680000  -6.4110000 -43.2980000  -3.8690000  -6.2500000
 -41.8980000  -3.3940000  -7.2050000 -41.7610000  -2.8650000  -5.1200000
 -41.0360000  -2.0640000  -5.2730000 -42.4320000  -2.5490000  -4.3190000
 -41.0170000  -4.1450000  -4.7030000 -41.7350000  -4.9600000  -4.5860000
 -40.3240000  -4.4300000  -5.4970000 -40.2390000  -3.9660000  -3.3870000
 -39.5790000  -3.1000000  -3.4670000 -40.9440000  -3.7670000  -2.5770000
 -39.3990000  -5.2110000  -3.0500000 -40.0400000  -6.0950000  -3.0860000
 -38.6240000  -5.3350000  -3.8090000 -38.7450000  -5.1130000  -1.6580000
 -38.2400000  -4.1490000  -1.5650000 -39.5270000  -5.1420000  -0.8960000
 -37.7240000  -6.2320000  -1.3790000 -36.8580000  -6.1030000  -2.0310000
 -37.3710000  -6.1320000  -0.3510000 -38.2890000  -7.6470000  -1.5820000
 -37.5610000  -8.3960000  -1.2620000 -38.5110000  -7.8220000  -2.6360000
 -39.2040000  -7.7830000  -1.0020000 -41.8550000   0.5800000  -3.0380000
 -40.9000000   0.0830000  -2.8570000 -42.6560000  -0.1370000  -2.8480000
 -41.9520000   1.4110000  -2.3370000 -41.9220000   1.0880000  -4.4870000
 -41.7590000   0.2460000  -5.1630000 -41.1080000   1.7990000  -4.6490000
 -43.2790000   1.7440000  -4.8120000 -43.4410000   2.6110000  -4.1690000
 -44.0640000   1.0220000  -4.5780000 -43.4370000   2.1530000  -6.2920000
 -44.4910000   2.0480000  -6.5590000 -42.8870000   1.4520000  -6.9240000
 -43.0140000   3.5930000  -6.6460000 -43.6560000   4.2960000  -6.1100000
 -43.2080000   3.7350000  -7.7110000 -41.5410000   3.9310000  -6.3420000
 -40.9000000   3.1460000  -6.7500000 -41.3940000   3.9420000  -5.2600000
 -41.0810000   5.2900000  -6.9080000 -40.0550000   5.4690000  -6.5780000
 -41.6960000   6.0920000  -6.4940000 -41.1270000   5.3480000  -8.4470000
 -42.1660000   5.3310000  -8.7850000 -40.6350000   4.4580000  -8.8420000
 -40.4410000   6.6070000  -9.0100000 -39.3900000   6.6040000  -8.7130000
 -40.9010000   7.4930000  -8.5690000 -40.5300000   6.7140000 -10.5460000
 -40.0690000   7.6550000 -10.8540000 -41.5810000   6.7600000 -10.8390000
 -39.8370000   5.5500000 -11.2840000 -40.3020000   4.6030000 -11.0010000
 -38.7910000   5.5090000 -10.9740000 -39.9060000   5.6980000 -12.8150000
 -39.5600000   6.6960000 -13.0920000 -40.9430000   5.6140000 -13.1450000
 -39.0470000   4.6620000 -13.5640000 -38.0350000   4.6620000 -13.1530000
 -38.9690000   4.9670000 -14.6100000 -39.6340000   3.2410000 -13.5080000
 -40.6270000   3.2610000 -13.9620000 -39.7490000   2.9230000 -12.4700000
 -38.7520000   2.2260000 -14.2600000 -37.8000000   2.0890000 -13.7430000
 -38.5360000   2.6180000 -15.2560000 -39.4270000   0.8840000 -14.4240000
 -40.1810000   0.3860000 -13.6040000 -39.0680000   0.2970000 -15.5850000
 -39.9770000  -0.6750000 -16.1770000 -40.4630000  -1.2770000 -15.4050000
 -39.3900000  -1.3460000 -16.8090000 -41.0400000   0.0350000 -17.0600000
 -41.7180000  -0.7260000 -17.4560000 -40.3960000   0.8100000 -18.2400000
 -41.1620000   0.9460000 -19.0080000 -39.5750000   0.2400000 -18.6820000
 -39.9090000   2.1130000 -17.8100000 -39.9810000   3.4150000 -18.7580000
 -41.5470000   3.7980000 -18.7340000 -42.4150000   3.4420000 -19.8280000
 -42.3320000   2.3700000 -20.0250000 -42.1070000   3.9820000 -20.7280000
 -43.8800000   3.7700000 -19.4570000 -44.1470000   3.2350000 -18.5440000
 -44.5240000   3.4050000 -20.2590000 -44.2660000   5.2140000 -19.2430000
 -43.8690000   6.0520000 -20.4160000 -42.7800000   6.0840000 -20.4670000
 -44.2730000   7.0570000 -20.2840000 -44.2780000   5.6010000 -21.3210000
 -45.7510000   5.2930000 -19.0930000 -46.0520000   4.6810000 -18.2420000
 -46.2160000   4.9210000 -20.0080000 -46.0340000   6.3330000 -18.9270000
 -43.6470000   5.7760000 -18.0020000 -43.9650000   5.1750000 -17.1490000
 -43.9720000   6.8100000 -17.8790000 -42.5620000   5.7280000 -18.1060000
 -39.2290000   4.5190000 -18.1030000 -39.5970000   3.0130000 -20.1410000
 -41.7750000   0.9680000 -16.2240000 -42.9620000   1.4350000 -16.6360000
 -43.5660000   1.0220000 -17.6090000 -43.4830000   2.5460000 -15.7580000
 -42.8560000   3.4260000 -15.9160000 -44.5010000   2.7950000 -16.0640000
 -43.4630000   2.1690000 -14.2630000 -44.0400000   1.2560000 -14.1030000
 -42.4350000   1.9650000 -13.9530000 -44.0390000   3.2920000 -13.3870000
 -43.6680000   4.2520000 -13.7510000 -45.1270000   3.2990000 -13.4880000
 -43.6500000   3.1400000 -11.9040000 -43.8290000   2.1130000 -11.5790000
 -42.5790000   3.3280000 -11.8000000 -44.4240000   4.0910000 -10.9720000
 -45.4520000   3.7340000 -10.8820000 -43.9780000   4.0450000  -9.9760000
 -44.4380000   5.5530000 -11.4630000 -43.4180000   5.8620000 -11.6960000
 -45.0170000   5.6220000 -12.3860000 -45.0320000   6.5380000 -10.4420000
 -44.3680000   6.6070000  -9.5780000 -45.0450000   7.5260000 -10.9070000
 -46.4480000   6.1630000 -10.0440000 -47.1620000   6.1400000 -10.8630000
 -46.8670000   5.9040000  -8.8090000 -47.9130000   5.6610000  -8.6420000
 -45.9940000   5.8810000  -7.5730000 -46.3740000   5.1270000  -6.8800000
 -44.9760000   5.5830000  -7.8300000 -45.9700000   7.2570000  -6.8780000
 -45.7980000   8.0300000  -7.6300000 -46.9420000   7.4580000  -6.4240000
 -44.8600000   7.3750000  -5.8150000 -43.9000000   7.2070000  -6.3070000
 -44.8520000   8.3980000  -5.4330000 -44.9950000   6.4080000  -4.6230000
 -45.8210000   6.7300000  -3.9850000 -45.2340000   5.4030000  -4.9790000
 -43.6930000   6.3400000  -3.8010000 -42.8780000   6.0290000  -4.4580000
 -43.4470000   7.3340000  -3.4230000 -43.7930000   5.3490000  -2.6270000
 -44.4670000   5.7530000  -1.8690000 -44.2370000   4.4190000  -2.9890000
 -42.4310000   5.0170000  -1.9820000 -42.5900000   4.2980000  -1.1760000
 -41.7920000   4.5320000  -2.7220000 -41.6990000   6.2450000  -1.4140000
 -40.7700000   5.9380000  -0.9290000 -42.3220000   6.7540000  -0.6760000
 -41.4510000   6.9500000  -2.2100000 -37.3920000 -24.4570000  -0.5890000
 -37.6890000 -24.4930000   0.4610000 -37.8470000 -23.5780000  -1.0490000
 -36.3060000 -24.3550000  -0.6370000 -37.8370000 -25.7380000  -1.3140000
 -38.9240000 -25.8210000  -1.2580000 -37.4110000 -26.6040000  -0.8020000
 -37.3980000 -25.7470000  -2.7900000 -36.3100000 -25.6720000  -2.8410000
 -37.8120000 -24.8660000  -3.2850000 -37.8600000 -27.0200000  -3.5250000
 -38.9510000 -27.0710000  -3.5100000 -37.4920000 -27.8970000  -2.9880000
 -37.3700000 -27.0990000  -4.9840000 -37.7090000 -28.0420000  -5.4170000
 -36.2780000 -27.1160000  -4.9850000 -37.8730000 -25.9330000  -5.8600000
 -37.4380000 -24.9950000  -5.5090000 -38.9560000 -25.8480000  -5.7520000
 -37.5450000 -26.1040000  -7.3570000 -37.9850000 -25.2670000  -7.9030000
 -38.0150000 -27.0170000  -7.7270000 -36.0350000 -26.1430000  -7.6550000
 -35.5750000 -26.9810000  -7.1260000 -35.5710000 -25.2250000  -7.2890000
 -35.7500000 -26.2960000  -9.1580000 -36.2120000 -25.4730000  -9.7070000
 -36.2030000 -27.2250000  -9.5120000 -34.2400000 -26.3200000  -9.4490000
 -33.7560000 -27.0440000  -8.7910000 -33.8130000 -25.3410000  -9.2200000
 -33.9370000 -26.6850000 -10.9140000 -34.3920000 -25.9360000 -11.5660000
 -34.3960000 -27.6470000 -11.1500000 -32.4200000 -26.7670000 -11.1770000
 -31.9760000 -27.4770000 -10.4760000 -31.9640000 -25.7950000 -10.9770000
 -32.0620000 -27.2100000 -12.6080000 -32.4810000 -28.2000000 -12.7970000
 -30.9760000 -27.2990000 -12.6840000 -32.5630000 -26.2260000 -13.6790000
 -32.1880000 -25.2250000 -13.4540000 -33.6540000 -26.1810000 -13.6520000
 -32.1170000 -26.6320000 -15.0970000 -32.4460000 -27.6530000 -15.3020000
 -31.0280000 -26.6150000 -15.1760000 -32.6980000 -25.7140000 -16.1430000
 -32.8920000 -24.5230000 -15.9720000 -33.0010000 -26.3660000 -17.2830000
 -33.7060000 -25.6590000 -18.3450000 -33.4440000 -26.1490000 -19.2870000
 -33.3750000 -24.6190000 -18.4070000 -35.2490000 -25.7340000 -18.1750000
 -35.5590000 -26.7800000 -18.1140000 -35.9330000 -25.1170000 -19.4150000
 -35.6110000 -25.6470000 -20.3150000 -35.6460000 -24.0660000 -19.5080000
 -37.3790000 -25.2140000 -19.3090000 -38.3480000 -24.4820000 -20.3740000
 -38.4760000 -22.9930000 -19.7790000 -39.1730000 -22.7470000 -18.5400000
 -39.8520000 -23.5760000 -18.3220000 -39.7730000 -21.8390000 -18.6430000
 -38.1480000 -22.5970000 -17.3880000 -37.4820000 -23.4610000 -17.3980000
 -38.6900000 -22.5930000 -16.4420000 -37.2630000 -21.3690000 -17.3630000
 -36.3140000 -21.3420000 -18.5160000 -35.6800000 -22.2280000 -18.4620000
 -35.7080000 -20.4370000 -18.4510000 -36.8930000 -21.3470000 -19.4400000
 -38.0810000 -20.1170000 -17.3740000 -38.7890000 -20.1520000 -16.5450000
 -38.6090000 -20.0530000 -18.3260000 -37.4130000 -19.2620000 -17.2620000
 -36.4460000 -21.3810000 -16.1110000 -37.1170000 -21.4010000 -15.2510000
 -35.8350000 -20.4780000 -16.0840000 -35.8050000 -22.2630000 -16.1180000
 -37.6410000 -24.3920000 -21.6820000 -39.6820000 -25.1400000 -20.3340000
 -35.6900000 -24.9920000 -16.9950000 -35.8980000 -25.6630000 -15.8420000
 -35.6980000 -26.8560000 -15.6940000 -36.3840000 -24.7500000 -14.7370000
 -35.5200000 -24.3000000 -14.2450000 -36.9680000 -23.9420000 -15.1840000
 -37.2680000 -25.4830000 -13.7080000 -38.1020000 -25.9520000 -14.2340000
 -36.6870000 -26.2760000 -13.2320000 -37.8280000 -24.5610000 -12.6080000
 -37.0090000 -24.2090000 -11.9770000 -38.2960000 -23.6870000 -13.0640000
 -38.8690000 -25.3040000 -11.7490000 -39.7040000 -25.5990000 -12.3880000
 -38.4220000 -26.2200000 -11.3570000 -39.4070000 -24.4730000 -10.5690000
 -38.5950000 -24.2890000  -9.8620000 -39.7550000 -23.5030000 -10.9310000
 -40.5700000 -25.2000000  -9.8600000 -41.4380000 -25.2060000 -10.5210000
 -40.2880000 -26.2420000  -9.6950000 -40.9760000 -24.5960000  -8.5000000
 -41.8440000 -25.1530000  -8.1390000 -40.1710000 -24.7700000  -7.7830000
 -41.3450000 -23.1280000  -8.5920000 -41.9980000 -22.8750000  -9.4240000
 -40.9570000 -22.1590000  -7.7660000 -41.3060000 -21.1460000  -7.9490000
 -40.0500000 -22.3080000  -6.5600000 -40.6420000 -22.2020000  -5.6490000
 -39.5730000 -23.2900000  -6.5260000 -38.9570000 -21.2250000  -6.5530000
 -38.4270000 -21.2400000  -7.5070000 -39.4210000 -20.2420000  -6.4470000
 -37.9470000 -21.4500000  -5.4120000 -38.4830000 -21.4810000  -4.4610000
 -37.4700000 -22.4220000  -5.5500000 -36.8640000 -20.3560000  -5.3630000
 -36.4330000 -20.2370000  -6.3600000 -37.3240000 -19.4020000  -5.0950000
 -35.7220000 -20.6720000  -4.3770000 -35.2240000 -21.5880000  -4.7010000
 -34.9840000 -19.8680000  -4.4280000 -36.1920000 -20.8290000  -2.9170000
 -36.7450000 -19.9340000  -2.6230000 -36.8770000 -21.6760000  -2.8370000
 -35.0330000 -21.0360000  -1.9240000 -34.3600000 -20.1770000  -1.9740000
 -35.4410000 -21.0680000  -0.9120000 -34.2240000 -22.3200000  -2.1750000
 -33.4860000 -22.4570000  -1.3820000 -33.6930000 -22.2640000  -3.1280000
 -34.8810000 -23.1920000  -2.1910000  36.3120000  -1.7330000  -1.1580000
  35.3850000  -1.6110000  -0.5930000  36.9100000  -0.8270000  -1.0420000
  36.8650000  -2.5730000  -0.7340000  36.0020000  -1.9820000  -2.6420000
  35.4310000  -1.1390000  -3.0360000  35.3800000  -2.8750000  -2.7350000
  37.2910000  -2.1570000  -3.4640000  37.8830000  -2.9700000  -3.0390000
  37.8820000  -1.2420000  -3.3790000  37.0170000  -2.4570000  -4.9490000
  36.5190000  -1.5980000  -5.4050000  36.3160000  -3.2920000  -5.0170000
  38.2880000  -2.8340000  -5.7430000  38.0260000  -2.9870000  -6.7920000
  38.6300000  -3.8010000  -5.3670000  39.4840000  -1.8560000  -5.6670000
  40.3850000  -2.4270000  -5.8990000  39.6180000  -1.4910000  -4.6470000
  39.4400000  -0.6620000  -6.6430000  39.4510000  -1.0430000  -7.6660000
  40.3550000  -0.0820000  -6.5080000  38.2310000   0.2750000  -6.4710000
  38.1110000   0.5080000  -5.4110000  37.3260000  -0.2370000  -6.8040000
  38.3600000   1.5980000  -7.2490000  39.1730000   2.1820000  -6.8130000
  37.4470000   2.1810000  -7.1100000  38.6370000   1.4310000  -8.7570000
  39.6160000   0.9640000  -8.8880000  38.7050000   2.4270000  -9.1980000
  37.6000000   0.6030000  -9.5430000  37.5630000  -0.4100000  -9.1380000
  37.9390000   0.5130000 -10.5770000  36.1770000   1.1930000  -9.5410000
  35.8220000   1.2760000  -8.5120000  35.5160000   0.4910000 -10.0540000
  36.0710000   2.5670000 -10.2340000  36.4510000   2.4840000 -11.2540000
  36.6910000   3.2950000  -9.7070000  34.6170000   3.0740000 -10.2610000
  34.2510000   3.1080000  -9.2320000  33.9910000   2.3570000 -10.7970000
  34.4420000   4.4700000 -10.8940000  35.0800000   5.1930000 -10.3810000
  33.4070000   4.7970000 -10.7720000  34.7820000   4.4770000 -12.3620000
  35.8840000   4.7620000 -12.7930000  33.7380000   4.1270000 -13.1430000
  33.9140000   4.1250000 -14.5940000  34.3670000   5.0670000 -14.9120000
  32.9310000   4.0390000 -15.0650000  34.7840000   2.9240000 -15.0410000
  35.7180000   2.9390000 -14.4750000  35.1380000   2.9990000 -16.5470000
  36.0380000   2.4020000 -16.7130000  35.3590000   4.0290000 -16.8390000
  34.0740000   2.4750000 -17.3860000  34.3470000   2.1320000 -18.9350000
  35.4480000   0.9660000 -18.8530000  35.1250000  -0.3440000 -18.3500000
  35.2770000  -1.0800000 -19.1440000  34.0760000  -0.3780000 -18.0450000
  36.0240000  -0.6510000 -17.1260000  35.7420000  -1.6280000 -16.7300000
  35.8440000   0.0970000 -16.3530000  37.5240000  -0.7140000 -17.3190000
  38.1170000   0.6260000 -17.6120000  37.6620000   1.0140000 -18.5240000
  39.1930000   0.5100000 -17.7530000  37.9170000   1.2920000 -16.7720000
  38.1470000  -1.2080000 -16.0560000  37.7780000  -2.2170000 -15.8630000
  37.8670000  -0.5400000 -15.2400000  39.2310000  -1.2220000 -16.1810000
  37.8840000  -1.6540000 -18.4220000  37.4530000  -2.6310000 -18.1980000
  38.9720000  -1.7230000 -18.4810000  37.4820000  -1.2610000 -19.3570000
  33.1000000   1.5790000 -19.5260000  34.9730000   3.3200000 -19.5740000
  34.0210000   1.7180000 -14.7590000  34.5530000   0.7360000 -14.0170000
  35.7320000   0.6610000 -13.7240000  33.5120000  -0.2700000 -13.5880000
  33.0690000  -0.7220000 -14.4780000  34.0020000  -1.0590000 -13.0130000
  32.4080000   0.4080000 -12.7460000  32.8610000   0.9110000 -11.8890000
  31.9270000   1.1830000 -13.3470000  31.3150000  -0.5560000 -12.2510000
  30.5620000   0.0150000 -11.7040000  30.8120000  -0.9800000 -13.1220000
  31.8190000  -1.7080000 -11.3580000  30.9590000  -2.2710000 -10.9910000
  32.4110000  -2.3950000 -11.9670000  32.6690000  -1.2640000 -10.1540000
  33.0070000  -2.1580000  -9.6260000  33.5660000  -0.7540000 -10.5080000
  31.9190000  -0.3560000  -9.1590000  31.5380000   0.5330000  -9.6660000
  31.0630000  -0.8940000  -8.7470000  32.8610000   0.0780000  -8.0270000
  33.3670000  -0.8090000  -7.6380000  33.6190000   0.7380000  -8.4540000
  32.1360000   0.8130000  -6.9200000  31.2050000   1.2950000  -7.2060000
  32.5460000   0.8810000  -5.6570000  31.9500000   1.4250000  -4.9300000
  33.8210000   0.2680000  -5.1160000  33.6350000  -0.1560000  -4.1270000
  34.1600000  -0.5570000  -5.7460000  34.9510000   1.3060000  -5.0190000
  35.9050000   0.7760000  -5.0640000  34.9120000   1.9750000  -5.8820000
  34.9230000   2.1160000  -3.7110000  33.9330000   2.5530000  -3.5610000
  35.1090000   1.4320000  -2.8800000  35.9850000   3.2330000  -3.7080000
  36.8740000   2.8870000  -4.2410000  35.6000000   4.0950000  -4.2550000
  36.4220000   3.6640000  -2.2960000  36.9690000   2.8390000  -1.8350000
  37.1190000   4.4990000  -2.3830000  35.2620000   4.0670000  -1.3660000
  34.7110000   4.9030000  -1.8010000  34.5680000   3.2300000  -1.2600000
  35.7850000   4.4560000   0.0280000  36.4200000   3.6540000   0.4100000
  36.4040000   5.3520000  -0.0490000  34.6490000   4.7030000   1.0310000
  35.0490000   4.7880000   2.0440000  33.9430000   3.8700000   1.0160000
  34.1160000   5.6250000   0.7890000  27.8730000 -36.4000000  -1.8860000
  28.9400000 -36.1740000  -1.8310000  27.7000000 -37.0280000  -2.7620000
  27.5880000 -36.9630000  -0.9940000  27.0570000 -35.1030000  -1.9930000
  27.3270000 -34.5980000  -2.9230000  27.3210000 -34.4410000  -1.1660000
  25.5410000 -35.3640000  -1.9760000  25.2540000 -35.8000000  -1.0160000
  25.3120000 -36.1020000  -2.7480000  24.7250000 -34.0790000  -2.2200000
  25.0780000 -33.6040000  -3.1370000  24.9060000 -33.3790000  -1.4020000
  23.2070000 -34.3160000  -2.3450000  22.7220000 -33.3590000  -2.5500000
  22.8130000 -34.6880000  -1.3970000  22.8590000 -35.3070000  -3.4710000
  23.2230000 -36.3000000  -3.2000000  23.3820000 -34.9990000  -4.3780000
  21.3500000 -35.4060000  -3.7600000  21.0000000 -34.4770000  -4.2150000
  20.8120000 -35.5320000  -2.8180000  21.0180000 -36.5980000  -4.6790000
  19.9350000 -36.6590000  -4.8040000  21.3330000 -37.5170000  -4.1800000
  21.6840000 -36.5250000  -6.0680000  22.7500000 -36.3120000  -5.9580000
  21.2400000 -35.7100000  -6.6420000  21.5310000 -37.8500000  -6.8350000
  20.4710000 -38.1070000  -6.8820000  22.0290000 -38.6420000  -6.2720000
  22.0990000 -37.8220000  -8.2670000  21.5590000 -37.0790000  -8.8570000
  21.9110000 -38.7970000  -8.7240000  23.6080000 -37.5110000  -8.3160000
  24.1400000 -38.1930000  -7.6490000  23.7780000 -36.4980000  -7.9460000
  24.2170000 -37.6150000  -9.7270000  25.2400000 -37.2370000  -9.6860000
  23.6610000 -36.9680000 -10.4080000  24.2450000 -39.0600000 -10.2680000
  23.2300000 -39.4360000 -10.4100000  24.7200000 -39.6940000  -9.5170000
  25.0370000 -39.2090000 -11.5840000  25.9840000 -38.6680000 -11.5240000
  25.2860000 -40.2640000 -11.7140000  24.2850000 -38.7530000 -12.8180000
  23.4320000 -37.8840000 -12.8490000  24.6670000 -39.4590000 -13.9000000
  24.1250000 -39.1330000 -15.2140000  23.0420000 -38.9930000 -15.1540000
  24.3240000 -39.9800000 -15.8750000  24.8050000 -37.8700000 -15.8090000
  24.4820000 -36.9810000 -15.2600000  24.4090000 -37.6830000 -17.2940000
  23.3320000 -37.5110000 -17.3660000  24.6540000 -38.5880000 -17.8540000
  25.1030000 -36.5430000 -17.8760000  26.1320000 -36.7070000 -19.1180000
  26.8840000 -35.2890000 -19.1090000  27.8130000 -34.9650000 -18.0610000
  28.7590000 -35.4760000 -18.2570000  27.4200000 -35.3120000 -17.1020000
  28.0240000 -33.4320000 -18.0340000  28.3100000 -33.1010000 -19.0330000
  28.8430000 -33.1980000 -17.3520000  26.8680000 -32.5520000 -17.6140000
  26.4120000 -32.8700000 -16.2250000  26.0370000 -33.8950000 -16.2090000
  25.6080000 -32.1820000 -15.9610000  27.2530000 -32.7540000 -15.5400000
  27.3260000 -31.1340000 -17.6460000  27.6390000 -30.9060000 -18.6670000
  28.1580000 -31.0060000 -16.9520000  26.4880000 -30.4890000 -17.3800000
  25.7040000 -32.6630000 -18.5370000  26.0440000 -32.4170000 -19.5440000
  24.9350000 -31.9570000 -18.2200000  25.3270000 -33.6870000 -18.5050000
  27.1320000 -37.7700000 -18.8300000  25.3320000 -36.7910000 -20.3710000
  26.2480000 -38.0250000 -15.7540000  26.9430000 -37.4060000 -14.7870000
  26.4430000 -36.7590000 -13.8810000  28.4280000 -37.6090000 -14.9730000
  28.6710000 -38.6290000 -14.6690000  28.6620000 -37.5200000 -16.0360000
  29.2910000 -36.6100000 -14.1820000  28.9860000 -36.6290000 -13.1330000
  30.3280000 -36.9520000 -14.2260000  29.2430000 -35.1750000 -14.7410000
  29.6220000 -35.1850000 -15.7650000  28.2060000 -34.8350000 -14.7950000
  30.0810000 -34.1690000 -13.9270000  31.1320000 -34.4630000 -13.9730000
  29.9980000 -33.1910000 -14.4060000  29.6680000 -34.0300000 -12.4480000
  29.7690000 -34.9970000 -11.9520000  30.3620000 -33.3520000 -11.9470000
  28.2340000 -33.4850000 -12.2740000  28.2240000 -32.4280000 -12.5460000
  27.5450000 -33.9960000 -12.9500000  27.6940000 -33.6500000 -10.8440000
  28.3830000 -33.1760000 -10.1410000  26.7350000 -33.1310000 -10.7810000
  27.4900000 -35.1140000 -10.5170000  27.2510000 -35.7450000 -11.3700000
  27.6570000 -35.6750000  -9.3250000  27.5330000 -36.7510000  -9.2320000
  27.9430000 -34.9440000  -8.0270000  28.9520000 -35.1910000  -7.6890000
  27.9020000 -33.8610000  -8.1610000  26.9450000 -35.3390000  -6.9210000
  27.1860000 -34.7800000  -6.0150000  25.9370000 -35.0480000  -7.2230000
  26.9700000 -36.8470000  -6.6050000  26.6700000 -37.4140000  -7.4890000
  27.9930000 -37.1360000  -6.3580000  26.0480000 -37.2300000  -5.4380000
  26.3740000 -36.6960000  -4.5430000  25.0250000 -36.9190000  -5.6570000
  26.0840000 -38.7470000  -5.1800000  25.7520000 -39.2690000  -6.0800000
  27.1150000 -39.0530000  -4.9890000  25.2060000 -39.1790000  -3.9930000
  25.5520000 -38.6830000  -3.0840000  24.1750000 -38.8680000  -4.1700000
  25.2580000 -40.7060000  -3.7970000  24.9070000 -41.1950000  -4.7080000
  26.2930000 -41.0170000  -3.6360000  24.4030000 -41.1840000  -2.6150000
  24.4620000 -42.2710000  -2.5190000  23.3580000 -40.9070000  -2.7650000
  24.7570000 -40.7360000  -1.6840000 -28.7760000  -0.2900000  -2.6510000
 -28.2310000  -0.0420000  -1.7370000 -29.1710000   0.6350000  -3.0760000
 -28.0740000  -0.7320000  -3.3610000 -29.9120000  -1.2760000  -2.3350000
 -30.5990000  -0.8190000  -1.6200000 -29.4830000  -2.1500000  -1.8400000
 -30.6850000  -1.7460000  -3.5840000 -31.4150000  -2.4980000  -3.2750000
 -29.9900000  -2.2430000  -4.2640000 -31.4250000  -0.6370000  -4.3570000
 -31.9250000  -1.0900000  -5.2150000 -30.7030000   0.0810000  -4.7500000
 -32.4670000   0.1000000  -3.4960000 -31.9550000   0.6160000  -2.6810000
 -33.1500000  -0.6240000  -3.0480000 -33.2780000   1.1430000  -4.2830000
 -32.5970000   1.7520000  -4.8810000 -33.7580000   1.8070000  -3.5610000
 -34.3790000   0.5370000  -5.1750000 -35.1060000   0.0350000  -4.5340000
 -33.9590000  -0.2190000  -5.8420000 -35.1030000   1.6160000  -6.0040000
 -35.2760000   2.4980000  -5.3820000 -36.0830000   1.2390000  -6.3010000
 -34.3280000   2.0150000  -7.2740000 -34.4040000   1.1970000  -7.9930000
 -33.2700000   2.1480000  -7.0430000 -34.8620000   3.3110000  -7.9160000
 -34.4580000   4.1690000  -7.3750000 -35.9490000   3.3480000  -7.8120000
 -34.5200000   3.4310000  -9.4130000 -34.8270000   4.4180000  -9.7660000
 -35.1190000   2.6950000  -9.9530000 -33.0290000   3.2120000  -9.7450000
 -32.7330000   2.2020000  -9.4560000 -32.4230000   3.9050000  -9.1580000
 -32.7030000   3.4050000 -11.2410000 -31.6350000   3.2310000 -11.3870000
 -32.9030000   4.4410000 -11.5240000 -33.5120000   2.4720000 -12.1650000
 -34.5690000   2.7340000 -12.0900000 -33.4170000   1.4380000 -11.8270000
 -33.1060000   2.5810000 -13.6500000 -33.0690000   3.6300000 -13.9510000
 -33.8730000   2.0970000 -14.2580000 -31.7870000   1.9250000 -13.9840000
 -31.2050000   1.1330000 -13.2640000 -31.3480000   2.3150000 -15.2020000
 -30.2300000   1.5870000 -15.7940000 -29.5760000   1.1660000 -15.0270000
 -29.6390000   2.2930000 -16.3830000 -30.7540000   0.4690000 -16.7310000
 -29.9170000  -0.1900000 -16.9750000 -31.2980000   1.0540000 -18.0530000
 -30.4580000   1.3920000 -18.6660000 -31.9440000   1.9110000 -17.8480000
 -32.0470000   0.0450000 -18.7870000 -32.7050000   0.3610000 -20.2270000
 -34.1590000   0.9460000 -19.8480000 -35.2810000   0.0790000 -19.5690000
 -35.1990000  -0.8450000 -20.1470000 -36.1970000   0.5830000 -19.8890000
 -35.3590000  -0.2480000 -18.0570000 -34.4130000  -0.6890000 -17.7390000
 -36.1480000  -0.9870000 -17.9070000 -35.6590000   0.8770000 -17.0950000
 -34.4990000   1.8020000 -16.9680000 -33.6360000   1.2300000 -16.6250000
 -34.7570000   2.5870000 -16.2550000 -34.3060000   2.2280000 -17.9540000
 -36.8520000   1.6670000 -17.5150000 -37.7250000   1.0120000 -17.5310000
 -36.6710000   2.0860000 -18.5060000 -37.0190000   2.4730000 -16.8000000
 -35.9360000   0.3030000 -15.7440000 -36.8130000  -0.3420000 -15.8130000
 -36.1330000   1.1210000 -15.0480000 -35.0680000  -0.2720000 -15.4180000
 -31.9310000   1.4540000 -20.8780000 -32.8630000  -0.9250000 -20.9610000
 -31.8310000  -0.2590000 -16.0680000 -31.7160000  -1.5900000 -15.8930000
 -30.7130000  -2.2350000 -16.1330000 -33.0010000  -2.1860000 -15.3720000
 -33.5170000  -1.4400000 -14.7640000 -33.6410000  -2.3890000 -16.2330000
 -32.8150000  -3.4910000 -14.5620000 -33.7940000  -3.9640000 -14.4610000
 -32.1930000  -4.1910000 -15.1240000 -32.2310000  -3.3110000 -13.1450000
 -32.2360000  -4.2880000 -12.6570000 -31.1910000  -2.9840000 -13.2040000
 -33.0370000  -2.3140000 -12.2880000 -32.7190000  -1.2970000 -12.5270000
 -34.0940000  -2.3930000 -12.5500000 -32.9050000  -2.5550000 -10.7720000
 -33.3280000  -3.5340000 -10.5360000 -31.8530000  -2.5700000 -10.4820000
 -33.6490000  -1.4650000  -9.9720000 -33.0350000  -0.5630000  -9.9330000
 -34.5670000  -1.2000000 -10.5010000 -34.0450000  -1.8840000  -8.5430000
 -34.5660000  -1.0420000  -8.0830000 -34.7650000  -2.7030000  -8.6070000
 -32.8550000  -2.2530000  -7.6790000 -31.9760000  -1.6280000  -7.8110000
 -32.8280000  -3.2360000  -6.7830000 -31.9240000  -3.4030000  -6.2030000
 -33.9640000  -4.2000000  -6.5000000 -34.5170000  -4.4100000  -7.4170000
 -33.5590000  -5.1580000  -6.1670000 -34.9450000  -3.6760000  -5.4320000
 -35.2560000  -2.6600000  -5.6820000 -35.8390000  -4.3020000  -5.4630000
 -34.3740000  -3.7110000  -4.0010000 -33.9880000  -4.7140000  -3.8070000
 -33.5400000  -3.0110000  -3.9170000 -35.4490000  -3.3780000  -2.9460000
 -35.7410000  -2.3290000  -3.0310000 -36.3380000  -3.9720000  -3.1650000
 -35.0110000  -3.6990000  -1.5010000 -35.8920000  -3.6870000  -0.8560000
 -34.6220000  -4.7190000  -1.4770000 -33.9560000  -2.7490000  -0.9020000
 -33.5940000  -3.1850000   0.0310000 -33.0980000  -2.6720000  -1.5740000
 -34.5120000  -1.3430000  -0.5980000 -34.8330000  -0.8610000  -1.5230000
 -35.3900000  -1.4330000   0.0440000 -33.4750000  -0.4510000   0.1030000
 -33.8940000   0.5400000   0.2910000 -32.5820000  -0.3370000  -0.5160000
 -33.1790000  -0.8870000   1.0590000 -32.9960000 -18.0610000  -0.0360000
 -33.4760000 -17.4400000   0.7230000 -32.0760000 -18.4730000   0.3830000
 -33.6690000 -18.8840000  -0.2830000 -32.6930000 -17.2090000  -1.2770000
 -32.0680000 -16.3640000  -0.9810000 -33.6280000 -16.8030000  -1.6680000
 -31.9810000 -18.0060000  -2.3840000 -32.6200000 -18.8270000  -2.7150000
 -31.0630000 -18.4400000  -1.9850000 -31.6400000 -17.1070000  -3.5850000
 -31.0130000 -16.2800000  -3.2430000 -32.5590000 -16.6750000  -3.9850000
 -30.9060000 -17.8650000  -4.7040000 -31.5500000 -18.6580000  -5.0910000
 -30.0090000 -18.3380000  -4.2970000 -30.5140000 -16.9140000  -5.8480000
 -29.8960000 -16.1080000  -5.4470000 -31.4220000 -16.4560000  -6.2450000
 -29.7370000 -17.6240000  -6.9750000 -30.3200000 -18.4620000  -7.3630000
 -28.8260000 -18.0450000  -6.5420000 -29.3330000 -16.6850000  -8.1310000
 -28.3910000 -17.0470000  -8.5480000 -29.1330000 -15.6870000  -7.7360000
 -30.3460000 -16.5880000  -9.2930000 -30.3900000 -17.5540000  -9.8010000
 -29.9660000 -15.8640000 -10.0160000 -31.7700000 -16.1780000  -8.8740000
 -31.7100000 -15.3140000  -8.2090000 -32.2290000 -16.9920000  -8.3090000
 -32.6880000 -15.8160000 -10.0570000 -32.2840000 -14.9400000 -10.5680000
 -33.6630000 -15.5330000  -9.6570000 -32.8650000 -16.9620000 -11.0730000
 -33.2370000 -17.8510000 -10.5590000 -31.8940000 -17.2180000 -11.5020000
 -33.8210000 -16.6050000 -12.2270000 -33.7780000 -17.4030000 -12.9710000
 -33.4630000 -15.6940000 -12.7120000 -35.2880000 -16.4240000 -11.7800000
 -35.3700000 -15.5900000 -11.0800000 -35.5980000 -17.3230000 -11.2440000
 -36.2680000 -16.1990000 -12.9520000 -37.2930000 -16.3070000 -12.5900000
 -36.1110000 -16.9580000 -13.7210000 -36.1250000 -14.8280000 -13.5690000
 -36.8460000 -13.8850000 -13.2990000 -35.1110000 -14.7670000 -14.4510000
 -34.8060000 -13.4990000 -15.0980000 -34.8380000 -12.6930000 -14.3610000
 -35.5510000 -13.3000000 -15.8730000 -33.3870000 -13.5550000 -15.7240000
 -33.1920000 -12.6270000 -16.2680000 -33.2910000 -14.7430000 -16.7170000
 -34.0330000 -14.6260000 -17.5110000 -33.5090000 -15.6660000 -16.1740000
 -31.9600000 -14.8690000 -17.2910000 -31.4770000 -14.0260000 -18.5780000
 -31.9240000 -14.9510000 -19.8120000 -33.2050000 -14.8030000 -20.4470000
 -33.2550000 -13.8090000 -20.8990000 -34.0090000 -14.8980000 -19.7120000
 -33.3360000 -15.8730000 -21.5570000 -32.4620000 -15.8100000 -22.2070000
 -34.2200000 -15.6530000 -22.1570000 -33.4590000 -17.3250000 -21.1520000
 -32.2520000 -17.8070000 -20.4180000 -31.3760000 -17.6400000 -21.0470000
 -32.3690000 -18.8700000 -20.1980000 -32.1570000 -17.2340000 -19.4950000
 -34.6700000 -17.5440000 -20.3020000 -35.5460000 -17.1780000 -20.8400000
 -34.5440000 -17.0020000 -19.3640000 -34.7670000 -18.6130000 -20.1080000
 -33.6040000 -18.1520000 -22.3870000 -34.4990000 -17.8320000 -22.9230000
 -33.6930000 -19.2000000 -22.0980000 -32.7190000 -18.0070000 -23.0090000
 -32.2410000 -12.7540000 -18.6370000 -29.9920000 -13.9770000 -18.5610000
 -32.3950000 -13.7290000 -14.6670000 -32.0500000 -12.6530000 -13.9350000
 -32.4750000 -11.5310000 -14.1470000 -31.0860000 -12.9930000 -12.8190000
 -31.3070000 -13.9980000 -12.4520000 -30.0750000 -13.0110000 -13.2300000
 -31.1680000 -11.9850000 -11.6520000 -30.9870000 -10.9780000 -12.0350000
 -32.1780000 -12.0000000 -11.2360000 -30.1440000 -12.2790000 -10.5380000
 -30.3700000 -13.2410000 -10.0730000 -29.1540000 -12.3690000 -10.9910000
 -30.0830000 -11.1710000  -9.4660000 -29.2360000 -11.3680000  -8.8060000
 -29.8780000 -10.2190000  -9.9620000 -31.3570000 -11.0140000  -8.6090000
 -31.2750000 -10.0840000  -8.0440000 -32.2330000 -10.9210000  -9.2540000
 -31.5650000 -12.1690000  -7.6110000 -31.6010000 -13.1180000  -8.1510000
 -30.7100000 -12.2090000  -6.9330000 -32.8590000 -12.0120000  -6.7910000
 -32.8800000 -11.0150000  -6.3470000 -33.7230000 -12.0820000  -7.4550000
 -32.9350000 -13.0420000  -5.6820000 -32.3710000 -12.7860000  -4.7890000
 -33.6590000 -14.1580000  -5.6860000 -33.6500000 -14.7920000  -4.8030000
 -34.4690000 -14.7010000  -6.8460000 -34.1480000 -14.2400000  -7.7820000
 -34.2710000 -15.7700000  -6.9420000 -35.9920000 -14.4950000  -6.6920000
 -36.2170000 -13.4270000  -6.7210000 -36.4720000 -14.9380000  -7.5660000
 -36.6290000 -15.1190000  -5.4300000 -37.6620000 -15.3850000  -5.6650000
 -36.1080000 -16.0430000  -5.1720000 -36.6470000 -14.1490000  -4.2310000
 -35.6230000 -13.8490000  -3.9950000 -37.1830000 -13.2430000  -4.5220000
 -37.3040000 -14.7080000  -2.9540000 -37.4140000 -13.8830000  -2.2470000
 -38.3090000 -15.0690000  -3.1850000 -36.4860000 -15.8360000  -2.2930000
 -36.4220000 -16.6840000  -2.9780000 -35.4670000 -15.4830000  -2.1210000
 -37.0760000 -16.3290000  -0.9560000 -38.0950000 -16.6870000  -1.1180000
 -36.4870000 -17.1800000  -0.6080000 -37.0910000 -15.2580000   0.1480000
 -37.4410000 -15.6940000   1.0870000 -37.7620000 -14.4370000  -0.1130000
 -36.0880000 -14.8560000   0.3080000  16.8450000 -40.4920000  -1.6020000
  17.1560000 -41.1630000  -0.7990000  16.0010000 -39.8970000  -1.2440000
  17.6760000 -39.8210000  -1.8290000  16.4450000 -41.3120000  -2.8390000
  15.7060000 -42.0580000  -2.5390000  17.3140000 -41.8590000  -3.2090000
  15.8650000 -40.4520000  -3.9760000  15.0070000 -39.8850000  -3.6090000
  15.5060000 -41.1160000  -4.7660000  16.9090000 -39.4900000  -4.5670000
  17.7810000 -40.0690000  -4.8770000  17.2390000 -38.7830000  -3.8030000
  16.3730000 -38.7060000  -5.7750000  15.5730000 -38.0330000  -5.4590000
  15.9530000 -39.4040000  -6.5020000  17.5060000 -37.9020000  -6.4330000
  18.3330000 -38.5850000  -6.6410000  17.8740000 -37.1530000  -5.7290000
  17.0800000 -37.2220000  -7.7450000  16.3150000 -36.4720000  -7.5320000
  16.6320000 -37.9700000  -8.4030000  18.2690000 -36.5650000  -8.4700000
  19.0810000 -37.2910000  -8.5470000  18.6420000 -35.7180000  -7.8900000
  17.8970000 -36.1060000  -9.8890000  17.1050000 -35.3570000  -9.8390000
  17.5020000 -36.9700000 -10.4270000  19.1050000 -35.5190000 -10.6460000
  19.9940000 -36.1180000 -10.4400000  19.3090000 -34.5190000 -10.2570000
  18.8970000 -35.4310000 -12.1730000  19.7710000 -34.9460000 -12.6130000
  18.0400000 -34.7860000 -12.3790000  18.6780000 -36.7890000 -12.8810000
  18.5960000 -36.6080000 -13.9550000  17.7270000 -37.2190000 -12.5620000
  19.8090000 -37.8080000 -12.6330000  19.9270000 -37.9730000 -11.5600000
  20.7490000 -37.3970000 -13.0060000  19.5430000 -39.1710000 -13.2990000
  19.4540000 -39.0440000 -14.3800000  18.5900000 -39.5600000 -12.9340000
  20.6610000 -40.1850000 -12.9890000  20.8390000 -40.2270000 -11.9120000
  21.5910000 -39.8710000 -13.4670000  20.2990000 -41.5670000 -13.4690000
  19.6590000 -42.3570000 -12.8030000  20.7740000 -41.8220000 -14.7050000
  20.4540000 -43.1020000 -15.3300000  20.2940000 -43.8820000 -14.5820000
  21.3140000 -43.4020000 -15.9350000  19.2230000 -42.9840000 -16.2680000
  19.0300000 -43.9590000 -16.7230000  19.4810000 -41.9820000 -17.4120000
  20.4630000 -42.1610000 -17.8570000  19.4510000 -40.9650000 -17.0140000
  18.4610000 -42.1470000 -18.4340000  18.2660000 -41.0690000 -19.6160000
  17.4330000 -39.9060000 -18.8900000  16.0590000 -40.1210000 -18.5220000
  15.9900000 -40.9800000 -17.8490000  15.4770000 -40.3360000 -19.4220000
  15.5020000 -38.8450000 -17.8470000  14.4570000 -39.0190000 -17.5880000
  15.5370000 -38.0180000 -18.5580000  16.1670000 -38.3460000 -16.5860000
  16.3770000 -39.4520000 -15.6010000  15.4140000 -39.9250000 -15.4030000
  16.7870000 -39.0280000 -14.6830000  17.0750000 -40.1720000 -16.0290000
  17.4810000 -37.6980000 -16.8810000  17.3180000 -36.8950000 -17.6020000
  18.1460000 -38.4490000 -17.3110000  17.9040000 -37.3040000 -15.9560000
  15.2810000 -37.3240000 -15.9520000  15.0870000 -36.5350000 -16.6800000
  15.7760000 -36.9200000 -15.0680000  14.3400000 -37.8020000 -15.6740000
  19.5980000 -40.5210000 -19.9940000  17.4200000 -41.6810000 -20.6770000
  18.0350000 -42.5350000 -15.5510000  17.3230000 -43.4550000 -14.8680000
  17.6790000 -44.6060000 -14.7040000  15.9950000 -42.9130000 -14.3930000
  15.5090000 -42.4230000 -15.2390000  15.3510000 -43.7360000 -14.0760000
  16.1560000 -41.8970000 -13.2470000  16.9440000 -41.1880000 -13.5090000
  15.2310000 -41.3260000 -13.1480000  16.4790000 -42.5430000 -11.8900000
  15.6060000 -43.0930000 -11.5330000  17.2960000 -43.2570000 -12.0070000
  16.8840000 -41.4740000 -10.8600000  17.7190000 -40.9020000 -11.2700000
  16.0560000 -40.7790000 -10.7070000  17.2970000 -42.0810000  -9.5070000
  16.4280000 -42.5650000  -9.0570000  18.0500000 -42.8540000  -9.6690000
  17.8490000 -41.0300000  -8.5240000  17.0940000 -40.2540000  -8.3800000
  18.0040000 -41.5060000  -7.5540000  19.1700000 -40.3690000  -8.9720000
  19.0190000 -39.8220000  -9.9050000  19.4610000 -39.6200000  -8.2330000
  20.2830000 -41.3820000  -9.1500000  20.4030000 -41.7600000 -10.1620000
  21.0930000 -41.8200000  -8.1920000  21.8600000 -42.5490000  -8.4390000
  21.0390000 -41.4240000  -6.7300000  22.0370000 -41.1340000  -6.3930000
  20.3860000 -40.5640000  -6.5710000  20.5300000 -42.5950000  -5.8730000
  19.5210000 -42.8530000  -6.2040000  21.1620000 -43.4700000  -6.0330000
  20.4970000 -42.2530000  -4.3720000  21.5170000 -42.1000000  -4.0120000
  19.9520000 -41.3170000  -4.2290000  19.8170000 -43.3610000  -3.5490000
  18.8050000 -43.5100000  -3.9300000  20.3570000 -44.3010000  -3.6850000
  19.7490000 -43.0220000  -2.0490000  20.7600000 -43.0250000  -1.6360000
  19.3460000 -42.0160000  -1.9200000  18.8600000 -44.0240000  -1.2880000
  17.8700000 -44.0360000  -1.7490000  19.2780000 -45.0270000  -1.3960000
  18.6890000 -43.7090000   0.2110000  18.2320000 -42.7240000   0.3290000
  17.9990000 -44.4350000   0.6450000  20.0060000 -43.7440000   1.0010000
  20.4780000 -44.7250000   0.9150000  20.7000000 -42.9830000   0.6380000
  19.8100000 -43.5490000   2.0570000 -33.1980000   4.5400000  -3.2490000
 -32.7790000   4.1160000  -4.1640000 -32.9240000   3.8940000  -2.4120000
 -32.7510000   5.5230000  -3.0900000 -34.7280000   4.6490000  -3.3660000
 -35.1550000   3.6490000  -3.4680000 -34.9700000   5.2060000  -4.2730000
 -35.3560000   5.3400000  -2.1430000 -34.9280000   6.3400000  -2.0450000
 -35.0820000   4.7860000  -1.2420000 -36.8940000   5.4400000  -2.2080000
 -37.2530000   5.9250000  -1.2980000 -37.3080000   4.4290000  -2.2140000
 -37.4510000   6.1960000  -3.4310000 -38.5400000   6.2310000  -3.3530000
 -37.2150000   5.6280000  -4.3330000 -36.9110000   7.6350000  -3.5620000
 -35.8250000   7.6080000  -3.6720000 -37.1240000   8.1810000  -2.6410000
 -37.4980000   8.4170000  -4.7540000 -37.1080000   9.4360000  -4.7130000
 -38.5830000   8.4790000  -4.6490000 -37.1500000   7.7910000  -6.1200000
 -37.5630000   6.7810000  -6.1680000 -36.0660000   7.7000000  -6.2150000
 -37.6990000   8.5800000  -7.3230000 -38.7790000   8.7010000  -7.2120000
 -37.5310000   7.9750000  -8.2160000 -37.0440000   9.9630000  -7.5200000
 -35.9660000   9.8390000  -7.6440000 -37.1960000  10.5710000  -6.6250000
 -37.6100000  10.7330000  -8.7300000 -37.1560000  11.7260000  -8.7540000
 -38.6860000  10.8680000  -8.6040000 -37.3360000  10.0390000 -10.0750000
 -37.8030000   9.0520000 -10.0720000 -36.2590000   9.8970000 -10.1860000
 -37.8700000  10.8430000 -11.2770000 -37.5230000  11.8750000 -11.2000000
 -38.9620000  10.8640000 -11.2500000 -37.3900000  10.2660000 -12.6220000
 -36.2980000  10.2830000 -12.6160000 -37.7170000  10.9180000 -13.4350000
 -37.8810000   8.8290000 -12.8890000 -38.9640000   8.8400000 -13.0240000
 -37.6650000   8.1830000 -12.0360000 -37.2270000   8.2040000 -14.0990000
 -36.1220000   7.6940000 -14.0710000 -38.0310000   8.2200000 -15.1810000
 -37.6240000   7.5000000 -16.3840000 -38.5290000   7.0890000 -16.8380000
 -36.9660000   6.6630000 -16.1380000 -36.9530000   8.4380000 -17.4190000
 -37.6600000   9.2420000 -17.6400000 -36.6430000   7.6580000 -18.7200000
 -37.5680000   7.4240000 -19.2530000 -36.1460000   6.7200000 -18.4600000
 -35.7630000   8.4270000 -19.5870000 -34.9260000   7.7200000 -20.7690000
 -33.7920000   6.9210000 -19.9550000 -32.6460000   7.6130000 -19.4300000
 -32.9770000   8.4360000 -18.7910000 -32.0770000   8.0280000 -20.2660000
 -31.7520000   6.6230000 -18.6450000 -30.8460000   7.1460000 -18.3350000
 -31.4610000   5.8090000 -19.3110000 -32.3040000   5.9740000 -17.3950000
 -33.3620000   4.9740000 -17.7250000 -34.1790000   5.4920000 -18.2290000
 -33.7140000   4.5200000 -16.7970000 -32.9360000   4.2260000 -18.3940000
 -31.1960000   5.2530000 -16.6930000 -30.4360000   5.9780000 -16.3960000
 -30.7740000   4.5120000 -17.3730000 -31.5980000   4.7540000 -15.8100000
 -32.8680000   6.9880000 -16.4520000 -32.1070000   7.7440000 -16.2560000
 -33.1520000   6.4880000 -15.5250000 -33.7510000   7.4360000 -16.9090000
 -35.8000000   6.7320000 -21.4580000 -34.2760000   8.7860000 -21.5790000
 -35.6960000   8.9660000 -16.8980000 -35.3970000  10.2600000 -17.1390000
 -36.1920000  11.1010000 -17.5240000 -33.9390000  10.5710000 -16.8790000
 -33.3860000   9.6470000 -16.6950000 -33.5210000  11.0170000 -17.7840000
 -33.7490000  11.5390000 -15.6960000 -32.7020000  11.8500000 -15.6540000
 -34.3390000  12.4400000 -15.8750000 -34.1490000  10.9420000 -14.3340000
 -34.1730000  11.7500000 -13.5990000 -35.1650000  10.5500000 -14.4080000
 -33.2070000   9.8280000 -13.8280000 -33.2910000   8.9540000 -14.4770000
 -32.1720000  10.1750000 -13.8720000 -33.5420000   9.4250000 -12.3810000
 -33.4660000  10.3030000 -11.7370000 -34.5770000   9.0790000 -12.3380000
 -32.6460000   8.3120000 -11.8110000 -32.7060000   7.4290000 -12.4510000
 -31.6060000   8.6450000 -11.7940000 -33.1000000   7.9480000 -10.3850000
 -33.0330000   8.8400000  -9.7590000 -34.1490000   7.6480000 -10.4260000
 -32.2890000   6.8060000  -9.8090000 -31.9860000   6.0490000 -10.5280000
 -31.9150000   6.6750000  -8.5400000 -31.3250000   5.8100000  -8.2490000
 -32.2440000   7.6270000  -7.4120000 -31.3300000   8.1500000  -7.1240000
 -32.9730000   8.3770000  -7.7240000 -32.8050000   6.8790000  -6.1890000
 -33.7030000   6.3350000  -6.4910000 -32.0800000   6.1420000  -5.8360000
 -33.1720000   7.8400000  -5.0430000 -33.7910000   8.6470000  -5.4390000
 -33.7760000   7.2990000  -4.3110000 -31.9450000   8.4290000  -4.3220000
 -31.4740000   7.6530000  -3.7150000 -31.2030000   8.7500000  -5.0560000
 -32.2830000   9.6470000  -3.4440000 -31.3610000   9.9880000  -2.9680000
 -32.6260000  10.4540000  -4.0950000 -33.3450000   9.4220000  -2.3520000
 -33.5600000  10.3830000  -1.8800000 -34.2770000   9.0770000  -2.8050000
 -32.8970000   8.4310000  -1.2640000 -32.7100000   7.4500000  -1.7050000
 -31.9610000   8.7800000  -0.8220000 -33.9540000   8.2950000  -0.1580000
 -34.8990000   7.9350000  -0.5710000 -34.1380000   9.2630000   0.3120000
 -33.6170000   7.5930000   0.6070000  27.4270000  27.0730000  -3.6000000
  26.6520000  27.3750000  -4.3070000  28.1260000  27.9040000  -3.4770000
  26.9560000  26.8670000  -2.6360000  28.1690000  25.8310000  -4.1160000
  28.6010000  26.0690000  -5.0900000  27.4540000  25.0170000  -4.2500000
  29.2840000  25.3920000  -3.1490000  28.8460000  25.2660000  -2.1570000
  30.0140000  26.2000000  -3.0720000  30.0270000  24.0870000  -3.5150000
  29.3510000  23.2350000  -3.4250000  30.8030000  23.9400000  -2.7610000
  30.7070000  24.0700000  -4.9000000  31.5680000  23.4000000  -4.8530000
  31.0940000  25.0670000  -5.1200000  29.7970000  23.5910000  -6.0510000
  28.8650000  24.1590000  -6.0530000  29.5360000  22.5420000  -5.9000000
  30.4710000  23.7480000  -7.4240000  31.2660000  23.0070000  -7.5290000
  30.9340000  24.7350000  -7.4800000  29.4670000  23.6140000  -8.5850000
  28.6750000  24.3530000  -8.4490000  29.0030000  22.6250000  -8.5660000
  30.1480000  23.8500000  -9.9450000  30.7780000  22.9940000 -10.1950000
  30.8040000  24.7190000  -9.8640000  29.1540000  24.1190000 -11.0890000
  29.7240000  24.4090000 -11.9740000  28.5280000  24.9730000 -10.8220000
  28.2530000  22.9240000 -11.4550000  27.6430000  22.6340000 -10.5970000
  28.8750000  22.0700000 -11.7300000  27.3400000  23.3040000 -12.6340000
  27.9600000  23.6940000 -13.4450000  26.6830000  24.1150000 -12.3130000
  26.4980000  22.1360000 -13.1820000  25.8260000  21.7600000 -12.4070000
  27.1710000  21.3210000 -13.4540000  25.6890000  22.5540000 -14.4280000
  25.3240000  21.6610000 -14.9400000  26.3550000  23.0720000 -15.1210000
  24.4940000  23.4620000 -14.0850000  24.7820000  24.1910000 -13.3250000
  23.6770000  22.8660000 -13.6710000  23.9890000  24.2230000 -15.2850000
  23.1510000  23.7880000 -16.0560000  24.5340000  25.4540000 -15.3520000
  24.1200000  26.3830000 -16.3970000  23.6030000  27.2200000 -15.9200000
  23.4200000  25.9170000 -17.0960000  25.3420000  26.9270000 -17.1940000
  25.0400000  27.8520000 -17.6930000  25.8180000  25.9510000 -18.2990000
  26.6510000  26.4120000 -18.8350000  25.0050000  25.7860000 -19.0110000
  26.2440000  24.6620000 -17.7750000  26.8600000  23.5330000 -18.7540000
  28.2960000  24.1500000 -19.1290000  29.3540000  24.1930000 -18.1540000
  29.7390000  23.1820000 -18.0020000  28.9620000  24.5620000 -17.2020000
  30.4810000  25.1180000 -18.6700000  30.8590000  24.7320000 -19.6180000
  31.3000000  25.1040000 -17.9490000  30.1650000  26.5780000 -18.8960000
  29.5200000  27.1860000 -17.6930000  28.5710000  26.6800000 -17.5060000
  29.3530000  28.2470000 -17.8790000  30.1940000  27.0530000 -16.8450000
  31.4390000  27.3100000 -19.1530000  31.9310000  26.8550000 -20.0140000
  32.0720000  27.2110000 -18.2710000  31.2130000  28.3600000 -19.3440000
  29.2970000  26.7780000 -20.0960000  29.8200000  26.3890000 -20.9710000
  29.0930000  27.8430000 -20.2140000  28.3680000  26.2240000 -19.9510000
  27.0670000  22.2750000 -17.9860000  26.0450000  23.4840000 -20.0000000
  26.4570000  27.2260000 -16.3050000  26.3040000  28.2120000 -15.3990000
  25.4180000  29.0510000 -15.4450000  27.3420000  28.1450000 -14.3050000
  28.2910000  27.8230000 -14.7400000  27.4930000  29.1400000 -13.8830000
  26.9250000  27.1540000 -13.1970000  26.7430000  26.1740000 -13.6440000
  27.7570000  27.0390000 -12.5000000  25.6750000  27.6010000 -12.4120000
  25.8640000  28.5790000 -11.9640000  24.8310000  27.7110000 -13.0970000
  25.2860000  26.6030000 -11.3060000  25.0720000  25.6330000 -11.7590000
  26.1330000  26.4660000 -10.6300000  24.0610000  27.0710000 -10.4960000
  24.3140000  28.0220000 -10.0220000  23.2190000  27.2630000 -11.1630000
  23.6380000  26.0770000  -9.3920000  24.5180000  25.5610000  -9.0030000
  23.2270000  26.6550000  -8.5620000  22.5650000  25.0470000  -9.8040000
  22.2750000  24.4830000  -8.9150000  21.6730000  25.5870000 -10.1290000
  23.0070000  24.1200000 -10.9200000  23.0460000  24.5810000 -11.9040000
  23.3240000  22.8340000 -10.7900000  23.6230000  22.2640000 -11.6650000
  23.3220000  22.0530000  -9.4940000  22.5200000  22.3950000  -8.8370000
  23.1270000  20.9980000  -9.7000000  24.6770000  22.1920000  -8.7790000
  25.4550000  21.7090000  -9.3740000  24.9340000  23.2510000  -8.7040000
  24.6510000  21.5880000  -7.3660000  23.8440000  22.0540000  -6.7960000
  24.4400000  20.5180000  -7.4230000  25.9820000  21.8150000  -6.6290000
  26.7730000  21.2480000  -7.1240000  26.2490000  22.8730000  -6.6870000
  25.8940000  21.4060000  -5.1500000  25.1000000  21.9810000  -4.6710000
  25.6320000  20.3480000  -5.0800000  27.2230000  21.6530000  -4.4190000
  27.9970000  21.0410000  -4.8860000  27.5120000  22.6980000  -4.5500000
  27.1730000  21.3300000  -2.9150000  26.7210000  20.3450000  -2.7760000
  28.1930000  21.2760000  -2.5300000  26.3920000  22.3690000  -2.0930000
  26.4040000  22.0940000  -1.0360000  25.3510000  22.4250000  -2.4190000
  26.8440000  23.3570000  -2.1970000   6.9510000  43.2330000  -1.0210000
   7.8160000  43.8700000  -0.8240000   6.6990000  42.6970000  -0.1040000
   6.1070000  43.8700000  -1.2950000   7.2660000  42.2390000  -2.1490000
   8.1400000  41.6470000  -1.8680000   7.5230000  42.8020000  -3.0480000
   6.0810000  41.2960000  -2.4380000   5.2190000  41.8850000  -2.7600000
   5.7950000  40.7920000  -1.5130000   6.3920000  40.2270000  -3.5040000
   5.5340000  39.5570000  -3.5910000   7.2400000  39.6240000  -3.1720000
   6.6980000  40.8210000  -4.8910000   7.5900000  41.4480000  -4.8320000
   5.8670000  41.4570000  -5.2030000   6.9270000  39.7310000  -5.9530000
   6.0180000  39.1370000  -6.0690000   7.7200000  39.0600000  -5.6180000
   7.3220000  40.3460000  -7.3060000   8.2400000  40.9230000  -7.1780000
   6.5430000  41.0380000  -7.6340000   7.5390000  39.2790000  -8.3920000
   6.5900000  38.7760000  -8.5860000   8.2430000  38.5270000  -8.0280000
   8.0920000  39.8980000  -9.6900000   9.0590000  40.3570000  -9.4740000
   7.4270000  40.6940000 -10.0310000   8.2780000  38.8700000 -10.8210000
   8.8620000  38.0280000 -10.4440000   8.8520000  39.3330000 -11.6260000
   6.9400000  38.3620000 -11.3900000   6.3630000  39.2200000 -11.7420000
   6.3670000  37.8800000 -10.5940000   7.1250000  37.3720000 -12.5550000
   7.6240000  36.4710000 -12.1910000   7.7750000  37.8230000 -13.3080000
   5.7970000  36.9750000 -13.2260000   6.0160000  36.3180000 -14.0710000
   5.3200000  37.8700000 -13.6310000   4.8260000  36.2550000 -12.2710000
   4.5480000  36.9140000 -11.4460000   5.3420000  35.3940000 -11.8400000
   3.5470000  35.7580000 -12.9700000   2.9770000  35.1270000 -12.2850000
   3.8190000  35.1430000 -13.8310000   2.6640000  36.9020000 -13.4120000
   2.0190000  37.5790000 -12.6310000   2.6410000  37.0480000 -14.7550000
   1.9440000  38.2010000 -15.3240000   1.0200000  38.3830000 -14.7700000
   1.6680000  37.9530000 -16.3530000   2.8070000  39.5000000 -15.3510000
   2.1060000  40.3270000 -15.4880000   3.8310000  39.5380000 -16.5150000
   4.4300000  40.4500000 -16.4470000   3.2740000  39.5720000 -17.4550000
   4.7210000  38.3880000 -16.5400000   5.6700000  38.1180000 -17.8170000
   6.6380000  39.4060000 -17.8000000   7.7520000  39.5210000 -18.7060000
   8.2510000  38.5520000 -18.7910000   8.4680000  40.2340000 -18.2900000
   7.2720000  40.0030000 -20.0990000   6.5220000  39.3080000 -20.4780000
   8.1220000  39.9910000 -20.7840000   6.6650000  41.3820000 -20.2220000
   5.3660000  41.4870000 -19.4920000   4.7110000  40.6880000 -19.8440000
   4.9250000  42.4650000 -19.6900000   5.5630000  41.3630000 -18.4260000
   7.5960000  42.4330000 -19.7120000   8.5440000  42.3500000 -20.2450000
   7.7450000  42.2760000 -18.6420000   7.1470000  43.4120000 -19.8880000
   6.3990000  41.6540000 -21.6650000   7.3420000  41.6090000 -22.2120000
   5.9570000  42.6470000 -21.7590000   5.7070000  40.8980000 -22.0400000
   6.4950000  36.9070000 -17.5560000   4.8340000  38.1650000 -19.0480000
   3.4620000  39.6740000 -14.0660000   3.7390000  40.9070000 -13.6110000
   3.7410000  41.9160000 -14.2950000   3.9910000  40.8940000 -12.1230000
   4.1920000  39.8650000 -11.8170000   4.8770000  41.4880000 -11.8890000
   2.7600000  41.4340000 -11.3640000   2.9280000  42.4770000 -11.0880000
   1.8930000  41.4150000 -12.0270000   2.3970000  40.6130000 -10.1140000
   1.4990000  41.0410000  -9.6640000   2.1440000  39.6010000 -10.4360000
   3.5140000  40.5550000  -9.0520000   4.4030000  40.0780000  -9.4690000
   3.7930000  41.5730000  -8.7740000   3.0830000  39.7950000  -7.7810000
   3.8800000  39.8800000  -7.0400000   2.2000000  40.2800000  -7.3590000
   2.7760000  38.3020000  -8.0300000   2.0060000  38.2050000  -8.7990000
   3.6730000  37.8070000  -8.4080000   2.2780000  37.5620000  -6.7750000
   1.3450000  38.0160000  -6.4340000   2.0460000  36.5350000  -7.0630000
   3.3330000  37.5350000  -5.6880000   4.3060000  37.1760000  -6.0150000
   3.1740000  37.8710000  -4.4120000   4.0240000  37.7760000  -3.7420000
   1.9150000  38.4210000  -3.7700000   1.2290000  38.8220000  -4.5180000
   1.3910000  37.6160000  -3.2510000   2.2340000  39.5400000  -2.7570000
   2.7090000  40.3690000  -3.2860000   1.2930000  39.9220000  -2.3570000
   3.1400000  39.1210000  -1.5780000   4.1310000  38.8500000  -1.9480000
   3.2750000  39.9870000  -0.9260000   2.5780000  37.9490000  -0.7510000
   1.5450000  38.1700000  -0.4730000   2.5670000  37.0420000  -1.3590000
   3.4040000  37.6900000   0.5220000   4.4140000  37.3950000   0.2310000
   3.4780000  38.6150000   1.0980000   2.7900000  36.5910000   1.4090000
   1.7520000  36.8500000   1.6280000   2.7820000  35.6490000   0.8560000
   3.5340000  36.3880000   2.7430000   3.5540000  37.3310000   3.2940000
   2.9740000  35.6740000   3.3500000   4.9720000  35.8700000   2.5700000
   5.4280000  35.6890000   3.5460000   5.5860000  36.5990000   2.0380000
   4.9770000  34.9330000   2.0090000  37.9850000 -17.4990000  -2.9990000
  37.4590000 -17.1970000  -2.0910000  39.0510000 -17.3060000  -2.8610000
  37.8330000 -18.5710000  -3.1420000  37.4520000 -16.7190000  -4.2060000
  37.4240000 -15.6560000  -3.9560000  36.4250000 -17.0300000  -4.4070000
  38.3050000 -16.9010000  -5.4740000  39.2900000 -16.4600000  -5.3100000
  37.8250000 -16.3360000  -6.2760000  38.4790000 -18.3650000  -5.9270000
  37.5180000 -18.8790000  -5.8650000  39.1690000 -18.8820000  -5.2560000
  38.9960000 -18.4460000  -7.3760000  40.0150000 -18.0590000  -7.4270000
  38.3790000 -17.7960000  -8.0010000  38.9350000 -19.8610000  -7.9820000
  39.1750000 -19.7900000  -9.0450000  37.9040000 -20.2190000  -7.9270000
  39.8540000 -20.9120000  -7.3260000  39.7240000 -21.8580000  -7.8560000
  39.5180000 -21.0860000  -6.3010000  41.3580000 -20.5640000  -7.3020000
  41.9050000 -21.4310000  -6.9270000  41.5250000 -19.7580000  -6.5840000
  41.9660000 -20.1470000  -8.6580000  43.0430000 -20.0240000  -8.5270000
  41.5660000 -19.1700000  -8.9380000  41.7170000 -21.1500000  -9.8030000
  40.6470000 -21.2180000 -10.0080000  42.0400000 -22.1430000  -9.4850000
  42.4560000 -20.7870000 -11.1090000  42.2010000 -21.5260000 -11.8700000
  43.5310000 -20.8780000 -10.9370000  42.1730000 -19.3720000 -11.6620000
  42.6930000 -19.2630000 -12.6160000  42.6090000 -18.6330000 -10.9860000
  40.6850000 -19.0200000 -11.8650000  40.6300000 -18.0070000 -12.2690000
  40.1810000 -18.9980000 -10.8960000  39.9340000 -19.9820000 -12.8080000
  39.9970000 -20.9970000 -12.4110000  40.4210000 -19.9880000 -13.7850000
  38.4420000 -19.6260000 -12.9790000  37.9490000 -20.4070000 -13.5620000
  37.9530000 -19.5840000 -12.0040000  38.2550000 -18.3060000 -13.6860000
  38.0630000 -17.2560000 -13.1010000  38.2970000 -18.4330000 -15.0260000
  38.3950000 -17.2420000 -15.8650000  37.7350000 -16.4610000 -15.4790000
  38.0410000 -17.5060000 -16.8640000  39.8570000 -16.6990000 -16.0010000
  39.8050000 -15.7720000 -16.5770000  40.8270000 -17.6060000 -16.8100000
  41.8620000 -17.3820000 -16.5420000  40.6940000 -17.3620000 -17.8670000
  40.5780000 -19.0290000 -16.6430000  40.9570000 -20.0830000 -17.8080000
  39.8950000 -19.7240000 -18.9620000  38.5280000 -20.1570000 -18.8720000
  38.0860000 -19.7450000 -17.9620000  38.4860000 -21.2480000 -18.8170000
  37.7600000 -19.6380000 -20.1120000  37.8370000 -18.5500000 -20.1490000
  36.7080000 -19.9020000 -20.0000000  38.1740000 -20.1410000 -21.4790000
  39.5070000 -19.6060000 -21.8890000  39.4690000 -18.5160000 -21.8630000
  39.7360000 -19.9580000 -22.8960000  40.2550000 -19.9690000 -21.1820000
  38.2150000 -21.6340000 -21.5190000  37.2390000 -22.0200000 -21.2190000
  38.9900000 -21.9760000 -20.8320000  38.4510000 -21.9490000 -22.5370000
  37.1750000 -19.6740000 -22.4860000  36.1970000 -20.0840000 -22.2310000
  37.4830000 -20.0280000 -23.4710000  37.1480000 -18.5830000 -22.4720000
  42.3150000 -19.7710000 -18.3360000  40.6800000 -21.4640000 -17.3210000
  40.4440000 -16.3790000 -14.7040000  40.0770000 -15.2080000 -14.1370000
  39.2560000 -14.4370000 -14.6160000  40.7820000 -14.9310000 -12.8280000
  41.5580000 -15.6790000 -12.6480000  41.2780000 -13.9620000 -12.9180000
  39.7860000 -14.9220000 -11.6510000  38.7660000 -14.8530000 -12.0370000
  39.8630000 -15.8690000 -11.1130000  40.0090000 -13.7400000 -10.6900000
  41.0240000 -13.7820000 -10.2880000  39.9260000 -12.8120000 -11.2600000
  38.9820000 -13.6870000  -9.5420000  39.0660000 -12.7250000  -9.0330000
  37.9770000 -13.7220000  -9.9690000  39.1220000 -14.8260000  -8.5130000
  38.2750000 -14.7730000  -7.8250000  39.0430000 -15.7860000  -9.0270000
  40.4390000 -14.8000000  -7.7040000  40.4890000 -15.6950000  -7.0820000
  41.2850000 -14.8560000  -8.3930000  40.6240000 -13.5620000  -6.8030000
  41.6260000 -13.6000000  -6.3710000  40.5680000 -12.6630000  -7.4200000
  39.5720000 -13.4860000  -5.7130000  38.6020000 -13.8990000  -5.9750000
  39.7590000 -13.0240000  -4.4810000  38.9330000 -13.0610000  -3.7750000
  41.0200000 -12.3790000  -3.9450000  41.7630000 -12.2410000  -4.7330000
  40.7840000 -11.3860000  -3.5560000  41.6330000 -13.2220000  -2.8150000
  41.7520000 -14.2460000  -3.1740000  42.6290000 -12.8340000  -2.5900000
  40.7970000 -13.2450000  -1.5220000  40.7000000 -12.2310000  -1.1280000
  39.7940000 -13.6070000  -1.7550000  41.4350000 -14.1580000  -0.4570000
  41.4630000 -15.1790000  -0.8430000  42.4700000 -13.8520000  -0.2880000
  40.6940000 -14.1580000   0.8950000  41.1340000 -14.9340000   1.5250000
  40.8600000 -13.2030000   1.3970000  39.1780000 -14.4050000   0.7590000
  38.6990000 -13.5080000   0.3610000  39.0040000 -15.2040000   0.0360000
  38.4980000 -14.7860000   2.0860000  37.4440000 -14.9970000   1.8920000
  38.9430000 -15.7040000   2.4760000  38.5990000 -13.6840000   3.1510000
  38.0230000 -13.9660000   4.0350000  38.2040000 -12.7400000   2.7690000
  39.6380000 -13.5310000   3.4500000  16.7580000 -32.1300000  -2.2700000
  16.2480000 -31.1890000  -2.0530000  17.7740000 -32.0740000  -1.8740000
  16.2300000 -32.9360000  -1.7560000  16.7860000 -32.3830000  -3.7860000
  17.2840000 -31.5410000  -4.2710000  15.7620000 -32.4190000  -4.1640000
  17.5120000 -33.6950000  -4.1430000  17.0620000 -34.5160000  -3.5800000
  18.5540000 -33.6290000  -3.8230000  17.4520000 -34.0490000  -5.6430000
  16.4180000 -34.2750000  -5.9120000  18.0300000 -34.9620000  -5.8050000
  17.9810000 -32.9560000  -6.5930000  17.3830000 -32.0520000  -6.4650000
  17.8290000 -33.2860000  -7.6230000  19.4790000 -32.6470000  -6.3890000
  20.0560000 -33.5400000  -6.6380000  19.6790000 -32.4160000  -5.3410000
  19.9740000 -31.4750000  -7.2560000  19.6600000 -31.6310000  -8.2900000
  21.0660000 -31.4650000  -7.2460000  19.4620000 -30.1120000  -6.7510000
  19.8440000 -29.9420000  -5.7420000  18.3720000 -30.1280000  -6.6860000
  19.8760000 -28.9380000  -7.6570000  19.4250000 -29.0780000  -8.6420000
  20.9600000 -28.9290000  -7.7850000  19.4190000 -27.6020000  -7.0420000
  19.9780000 -27.4360000  -6.1190000  18.3630000 -27.6790000  -6.7730000
  19.5960000 -26.3700000  -7.9450000  20.6500000 -26.2480000  -8.2030000
  19.2990000 -25.4860000  -7.3770000  18.7480000 -26.4490000  -9.2270000
  17.7280000 -26.7310000  -8.9560000  19.1460000 -27.2260000  -9.8820000
  18.7230000 -25.1100000  -9.9850000  19.7480000 -24.7860000 -10.1760000
  18.2540000 -24.3470000  -9.3600000  17.9750000 -25.1930000 -11.3270000
  18.5120000 -25.8800000 -11.9850000  18.0100000 -24.2070000 -11.7950000
  16.5020000 -25.6440000 -11.2050000  15.9620000 -24.9780000 -10.5290000
  16.4520000 -26.6560000 -10.7970000  15.8180000 -25.6490000 -12.5500000
  14.8560000 -24.9570000 -12.8300000  16.4090000 -26.4990000 -13.4110000
  15.9130000 -26.5950000 -14.7750000  15.8110000 -25.5920000 -15.1980000
  14.9390000 -27.0900000 -14.7760000  16.9280000 -27.4000000 -15.6250000
  17.8850000 -26.8720000 -15.6350000  16.4570000 -27.5480000 -17.0850000
  16.1360000 -26.5790000 -17.4750000  15.6190000 -28.2480000 -17.1340000
  17.5660000 -28.0300000 -17.8920000  17.4000000 -28.4150000 -19.4500000
  17.1810000 -30.0030000 -19.3930000  15.8710000 -30.5740000 -19.2260000
  15.3610000 -30.5650000 -20.1930000  15.2840000 -29.9860000 -18.5160000
  16.0300000 -32.0240000 -18.7230000  16.7180000 -32.5560000 -19.3820000
  15.0580000 -32.5180000 -18.7770000  16.5190000 -32.2510000 -17.3130000
  15.6190000 -31.5940000 -16.3170000  15.7120000 -30.5120000 -16.4160000
  15.9150000 -31.9050000 -15.3130000  14.5980000 -31.9160000 -16.5270000
  16.5030000 -33.7200000 -17.0500000  17.1740000 -34.2060000 -17.7590000
  15.4790000 -34.0710000 -17.1920000  16.8310000 -33.9010000 -16.0250000
  17.9160000 -31.7550000 -17.1170000  18.5510000 -32.2040000 -17.8830000
  18.2600000 -32.0410000 -16.1210000  17.9140000 -30.6700000 -17.2280000
  16.1670000 -27.7730000 -19.9820000  18.6970000 -28.1520000 -20.1310000
  17.0610000 -28.7340000 -15.0540000  18.0770000 -28.9600000 -14.1970000
  19.0260000 -28.2140000 -14.0310000  17.8870000 -30.2610000 -13.4520000
  16.8340000 -30.3340000 -13.1730000  18.1060000 -31.0950000 -14.1210000
  18.7800000 -30.3390000 -12.1940000  19.8260000 -30.3900000 -12.5040000
  18.6720000 -29.4200000 -11.6140000  18.4820000 -31.5430000 -11.2790000
  18.6900000 -32.4670000 -11.8220000  19.1790000 -31.5070000 -10.4390000
  17.0430000 -31.6020000 -10.7240000  16.3650000 -31.9360000 -11.5120000
  17.0100000 -32.3560000  -9.9350000  16.5380000 -30.2550000 -10.1680000
  17.2920000 -29.8260000  -9.5040000  16.3900000 -29.5550000 -10.9930000
  15.2190000 -30.3990000  -9.3920000  14.5220000 -31.0220000  -9.9570000
  15.4230000 -30.9070000  -8.4470000  14.5560000 -29.0390000  -9.1110000
  15.3050000 -28.3300000  -8.7510000  14.1660000 -28.6290000 -10.0450000
  13.4260000 -29.1960000  -8.1150000  12.4790000 -29.5240000  -8.5380000
  13.5110000 -28.9710000  -6.8070000  12.6350000 -29.1250000  -6.1830000
  14.7530000 -28.5130000  -6.0690000  14.9670000 -29.2080000  -5.2540000
  15.6290000 -28.5110000  -6.7200000  14.5410000 -27.1060000  -5.4820000
  13.9950000 -26.4960000  -6.2050000  13.9160000 -27.1830000  -4.5910000
  15.8490000 -26.3720000  -5.1330000  16.3420000 -26.0810000  -6.0630000
  15.5980000 -25.4510000  -4.6020000  16.8420000 -27.1890000  -4.2870000
  16.3540000 -27.5210000  -3.3680000  17.1480000 -28.0810000  -4.8370000
  18.0910000 -26.3530000  -3.9470000  18.4700000 -25.8970000  -4.8630000
  17.8060000 -25.5400000  -3.2750000  19.2220000 -27.1760000  -3.3030000
  18.8740000 -27.6090000  -2.3630000  19.4900000 -28.0050000  -3.9620000
  20.4670000 -26.3080000  -3.0410000  20.7930000 -25.8510000  -3.9780000
  20.2020000 -25.5000000  -2.3560000  21.6350000 -27.1070000  -2.4430000
  22.5050000 -26.4600000  -2.3070000  21.9160000 -27.9300000  -3.1040000
  21.3570000 -27.5180000  -1.4700000   0.0670000 -30.2940000  -5.3990000
  -0.0900000 -29.6340000  -6.2550000   1.0140000 -30.8190000  -5.5470000
   0.1490000 -29.6790000  -4.5000000  -1.1120000 -31.2760000  -5.2720000
  -1.2280000 -31.8400000  -6.2000000  -2.0220000 -30.6860000  -5.1450000
  -0.9970000 -32.2500000  -4.0800000  -2.0080000 -32.4860000  -3.7410000
  -0.4970000 -31.7540000  -3.2460000  -0.2980000 -33.5920000  -4.3880000
  -0.8930000 -34.1410000  -5.1210000  -0.2950000 -34.1890000  -3.4730000
   1.1470000 -33.4660000  -4.9040000   1.7130000 -32.8300000  -4.2200000
   1.1450000 -32.9850000  -5.8840000   1.8460000 -34.8330000  -5.0130000
   1.3030000 -35.4740000  -5.7120000   1.7950000 -35.3290000  -4.0420000
   3.3300000 -34.7160000  -5.4210000   3.8290000 -35.6610000  -5.1950000
   3.8080000 -33.9570000  -4.7970000   3.5750000 -34.3750000  -6.9060000
   4.6450000 -34.2260000  -7.0590000   3.0740000 -33.4400000  -7.1650000
   3.0880000 -35.5030000  -7.8330000   2.0030000 -35.5940000  -7.7480000
   3.5210000 -36.4460000  -7.4930000   3.4480000 -35.3200000  -9.3160000
   4.5320000 -35.3660000  -9.4410000   3.1100000 -34.3410000  -9.6630000
   2.7740000 -36.4230000 -10.1520000   1.6910000 -36.3340000 -10.0360000
   3.0570000 -37.4020000  -9.7590000   3.1170000 -36.3680000 -11.6480000
   4.1650000 -36.6430000 -11.7920000   2.9870000 -35.3500000 -12.0200000
   2.2080000 -37.3210000 -12.4450000   1.1720000 -36.9990000 -12.3160000
   2.2890000 -38.3290000 -12.0330000   2.5530000 -37.3620000 -13.9440000
   3.5600000 -37.7680000 -14.0600000   2.5660000 -36.3460000 -14.3460000
   1.5690000 -38.2220000 -14.7600000   1.4240000 -39.1920000 -14.2810000
   1.9870000 -38.4060000 -15.7520000   0.2360000 -37.5320000 -14.9170000
  -0.6900000 -37.6550000 -14.1320000   0.1850000 -36.7940000 -16.0440000
  -0.8720000 -35.8060000 -16.2040000  -1.7940000 -36.1460000 -15.7250000
  -1.0730000 -35.7100000 -17.2740000  -0.4690000 -34.4030000 -15.6600000
  -1.3440000 -33.7610000 -15.7910000   0.7140000 -33.7640000 -16.4400000
   0.8230000 -32.7150000 -16.1550000   0.4860000 -33.8000000 -17.5090000
   1.9760000 -34.4470000 -16.2040000   3.2260000 -34.2550000 -17.2080000
   2.7600000 -35.0870000 -18.5020000   2.7410000 -36.5240000 -18.4680000
   2.2040000 -36.8460000 -17.5720000   3.7630000 -36.9080000 -18.4150000
   2.0020000 -37.0530000 -19.7190000   1.0030000 -36.6160000 -19.7530000
   1.8970000 -38.1350000 -19.6260000   2.6220000 -36.8100000 -21.0770000
   4.0400000 -37.2810000 -21.1200000   4.6250000 -36.6820000 -20.4210000
   4.4170000 -37.1520000 -22.1360000   4.0660000 -38.3340000 -20.8370000
   1.8480000 -37.5720000 -22.1010000   0.8150000 -37.2200000 -22.0910000
   1.8910000 -38.6340000 -21.8550000   2.2970000 -37.3940000 -23.0790000
   2.5760000 -35.3660000 -21.4560000   1.5370000 -35.0350000 -21.4400000
   3.0000000 -35.2490000 -22.4550000   3.1580000 -34.8000000 -20.7270000
   3.3230000 -32.8190000 -17.5930000   4.4250000 -34.9190000 -16.6240000
  -0.1480000 -34.4860000 -14.2380000  -0.2540000 -33.3680000 -13.4920000
  -0.6730000 -32.3060000 -13.9230000   0.2020000 -33.5910000 -12.0650000
  -0.3100000 -34.4720000 -11.6730000   1.2710000 -33.8120000 -12.0770000
  -0.0680000 -32.3710000 -11.1550000   0.3690000 -31.4820000 -11.6140000
  -1.1440000 -32.1970000 -11.0900000   0.5210000 -32.5040000  -9.7360000
   1.6100000 -32.5370000  -9.8100000   0.2710000 -31.6060000  -9.1670000
   0.0450000 -33.7380000  -8.9470000   0.3730000 -34.6420000  -9.4650000
   0.5400000 -33.7340000  -7.9730000  -1.4790000 -33.7840000  -8.7260000
  -1.7790000 -32.8580000  -8.2300000  -2.0000000 -33.8170000  -9.6850000
  -1.9330000 -34.9730000  -7.8520000  -1.1680000 -35.1990000  -7.1060000
  -2.8260000 -34.6650000  -7.3030000  -2.2880000 -36.2550000  -8.6310000
  -2.6960000 -36.9880000  -7.9320000  -3.0890000 -36.0170000  -9.3350000
  -1.1180000 -36.8350000  -9.4000000  -0.8180000 -36.2660000 -10.2760000
  -0.5050000 -37.9830000  -9.1360000   0.3000000 -38.3150000  -9.7880000
  -0.7720000 -38.8780000  -7.9430000  -1.1510000 -38.3070000  -7.0930000
  -1.5320000 -39.6120000  -8.2150000   0.4940000 -39.6460000  -7.5190000
   0.2080000 -40.4200000  -6.8050000   0.9190000 -40.1460000  -8.3910000
   1.5780000 -38.7730000  -6.8670000   1.7910000 -37.9150000  -7.5080000
   1.1950000 -38.3910000  -5.9190000   2.8760000 -39.5780000  -6.6490000
   2.6300000 -40.5870000  -6.3130000   3.3870000 -39.6800000  -7.6090000
   3.8400000 -38.9440000  -5.6300000   4.8090000 -39.4410000  -5.7120000
   3.9950000 -37.8880000  -5.8620000   3.3250000 -39.1020000  -4.1880000
   2.3620000 -38.6010000  -4.0750000   3.1670000 -40.1660000  -3.9990000
   4.2980000 -38.5550000  -3.1350000   5.2920000 -38.9740000  -3.3080000
   4.3730000 -37.4700000  -3.2370000   3.8410000 -38.9120000  -1.7110000
   4.5030000 -38.4470000  -0.9770000   3.8630000 -39.9930000  -1.5610000
   2.8230000 -38.5590000  -1.5310000  12.4920000  22.9460000  -0.0230000
  12.6460000  23.2160000   1.0240000  11.7200000  22.1750000  -0.0740000
  12.1390000  23.8320000  -0.5550000  13.8090000  22.4320000  -0.6240000
  14.1640000  21.5950000  -0.0190000  14.5580000  23.2240000  -0.5640000
  13.6680000  21.9560000  -2.0820000  12.8530000  21.2310000  -2.1320000
  14.5820000  21.4350000  -2.3770000  13.4040000  23.0980000  -3.0800000
  14.2970000  23.7190000  -3.1720000  12.5980000  23.7340000  -2.7070000
  12.9960000  22.5610000  -4.4630000  12.1230000  21.9180000  -4.3320000
  13.7970000  21.9460000  -4.8760000  12.6620000  23.7040000  -5.4430000
  13.5830000  24.2280000  -5.7060000  12.0220000  24.4310000  -4.9380000
  11.9670000  23.2350000  -6.7380000  12.6380000  22.5630000  -7.2770000
  11.8150000  24.1030000  -7.3820000  10.6140000  22.5160000  -6.5220000
  10.8010000  21.5460000  -6.0580000  10.1730000  22.3050000  -7.4980000
   9.5930000  23.2710000  -5.6400000  10.0280000  23.4050000  -4.6480000
   8.7130000  22.6420000  -5.4960000   9.1470000  24.6540000  -6.1650000
   9.9410000  25.1210000  -6.7520000   8.9870000  25.3010000  -5.2990000
   7.8310000  24.6370000  -6.9690000   7.5520000  25.6660000  -7.2020000
   7.0450000  24.2340000  -6.3280000   7.8520000  23.8220000  -8.2770000
   6.8500000  23.8510000  -8.7120000   8.0740000  22.7760000  -8.0590000
   8.8460000  24.3720000  -9.3140000   9.8550000  24.3770000  -8.8960000
   8.5810000  25.4060000  -9.5440000   8.8520000  23.5500000 -10.6140000
   7.8410000  23.4990000 -11.0230000   9.1720000  22.5290000 -10.3960000
   9.7940000  24.1790000 -11.6560000  10.7940000  24.2910000 -11.2320000
   9.4340000  25.1740000 -11.9270000   9.8880000  23.3340000 -12.9010000
  10.7860000  22.5340000 -13.0990000   8.8870000  23.5840000 -13.7690000
   8.9300000  23.0050000 -15.1120000   7.9040000  22.7680000 -15.4050000
   9.4990000  22.0730000 -15.1200000   9.5000000  24.0020000 -16.1600000
   9.4140000  23.5190000 -17.1360000  10.9890000  24.3600000 -15.8930000
  11.5970000  23.4760000 -16.1000000  11.1320000  24.6420000 -14.8460000
  11.4380000  25.4760000 -16.7220000  13.0070000  25.7460000 -17.0370000
  13.2230000  25.1010000 -18.5020000  13.0520000  23.6890000 -18.7320000
  13.2390000  23.1380000 -17.8060000  13.7790000  23.3580000 -19.4780000
  11.6120000  23.4250000 -19.2280000  10.9070000  23.9020000 -18.5450000
  11.4250000  22.3500000 -19.2090000  11.2150000  23.8790000 -20.6050000
  11.2570000  25.3640000 -20.7360000  10.6020000  25.7890000 -19.9740000
  10.9170000  25.6410000 -21.7350000  12.2830000  25.6960000 -20.5740000
  12.0880000  23.2630000 -21.6490000  12.0420000  22.1780000 -21.5460000
  13.1080000  23.6230000 -21.5090000  11.7180000  23.5650000 -22.6300000
   9.8130000  23.4350000 -20.8530000   9.7650000  22.3510000 -20.7380000
   9.5260000  23.7280000 -21.8630000   9.1710000  23.9210000 -20.1170000
  13.2040000  27.2180000 -17.1640000  13.8510000  25.0000000 -16.0600000
   8.6880000  25.2120000 -16.1360000   8.5350000  25.9170000 -17.2760000
   8.8190000  25.4890000 -18.3840000   7.9290000  27.2930000 -17.0810000
   8.4270000  27.9910000 -17.7560000   6.8810000  27.2380000 -17.3840000
   7.9880000  27.8530000 -15.6410000   7.4420000  28.7990000 -15.6300000
   7.4600000  27.1750000 -14.9670000   9.4040000  28.1110000 -15.0890000
   9.9570000  27.1710000 -15.0280000   9.9470000  28.7720000 -15.7680000
   9.3450000  28.7500000 -13.6890000   8.8500000  29.7200000 -13.7630000
   8.7360000  28.1190000 -13.0370000  10.7390000  28.9390000 -13.0620000
  11.1940000  27.9630000 -12.8840000  11.3780000  29.4650000 -13.7740000
  10.7100000  29.7510000 -11.7490000  11.7350000  29.8920000 -11.3990000
  10.3140000  30.7450000 -11.9670000   9.8760000  29.1360000 -10.6070000
   9.8190000  29.8710000  -9.8010000   8.8560000  28.9670000 -10.9580000
  10.4620000  27.8280000 -10.1060000  10.8180000  27.1530000 -10.8810000
  10.6100000  27.4850000  -8.8300000  11.0680000  26.5300000  -8.5840000
  10.1310000  28.2920000  -7.6390000   9.3280000  28.9690000  -7.9360000
   9.7000000  27.6250000  -6.8900000  11.2690000  29.1220000  -7.0100000
  11.7180000  29.7450000  -7.7870000  10.8420000  29.8100000  -6.2770000
  12.3830000  28.2910000  -6.3370000  12.8770000  27.6760000  -7.0920000
  13.1380000  28.9760000  -5.9460000  11.9070000  27.3760000  -5.1900000
  11.2760000  26.5840000  -5.5980000  12.7790000  26.8920000  -4.7460000
  11.1310000  28.1260000  -4.0890000  11.7520000  28.9430000  -3.7170000
  10.2260000  28.5650000  -4.5120000  10.7250000  27.2060000  -2.9220000
  10.1560000  26.3600000  -3.3130000  11.6240000  26.7990000  -2.4530000
   9.8760000  27.9200000  -1.8520000   8.9330000  28.2500000  -2.2940000
   9.6290000  27.2050000  -1.0650000  10.5900000  29.1290000  -1.2210000
  10.0010000  29.5240000  -0.3910000  10.7280000  29.9290000  -1.9510000
  11.5700000  28.8350000  -0.8420000  46.2330000  -4.1120000   0.6590000
  46.1350000  -4.7500000   1.5400000  46.7790000  -3.2100000   0.9440000
  46.8160000  -4.6480000  -0.0930000  44.8440000  -3.7490000   0.1100000
  44.2860000  -3.2300000   0.8920000  44.2990000  -4.6630000  -0.1360000
  44.9270000  -2.8450000  -1.1300000  45.5980000  -3.2960000  -1.8640000
  45.3730000  -1.8940000  -0.8280000  43.5560000  -2.5770000  -1.7820000
  42.8710000  -2.1850000  -1.0270000  43.1290000  -3.5140000  -2.1460000
  43.6430000  -1.5620000  -2.9390000  44.1840000  -0.6770000  -2.5980000
  42.6340000  -1.2400000  -3.2010000  44.3200000  -2.1300000  -4.2020000
  43.6950000  -2.9320000  -4.6000000  45.2890000  -2.5640000  -3.9460000
  44.5350000  -1.0430000  -5.2740000  45.2240000  -0.2970000  -4.8720000
  43.5930000  -0.5250000  -5.4650000  45.1200000  -1.5810000  -6.5980000
  46.0700000  -2.0760000  -6.3850000  45.3450000  -0.7340000  -7.2490000
  44.2090000  -2.5660000  -7.3610000  43.9940000  -3.4300000  -6.7290000
  44.7540000  -2.9390000  -8.2310000  42.8850000  -1.9320000  -7.8340000
  43.0970000  -1.1610000  -8.5790000  42.4000000  -1.4340000  -6.9910000
  41.8810000  -2.9540000  -8.4010000  40.9390000  -2.4420000  -8.6070000
  41.6660000  -3.6940000  -7.6270000  42.3270000  -3.7010000  -9.6730000
  41.5420000  -4.4110000  -9.9380000  43.2160000  -4.2960000  -9.4550000
  42.6230000  -2.8170000 -10.9010000  42.7260000  -3.4750000 -11.7660000
  43.5850000  -2.3200000 -10.7610000  41.5440000  -1.7520000 -11.1960000
  41.6630000  -0.9200000 -10.4980000  40.5550000  -2.1790000 -11.0190000
  41.5800000  -1.2110000 -12.6430000  40.9260000  -0.3410000 -12.7310000
  41.1900000  -1.9760000 -13.3170000  42.9710000  -0.8340000 -13.0970000
  43.5330000   0.2080000 -12.8120000  43.5160000  -1.8020000 -13.8550000
  44.8850000  -1.6540000 -14.3300000  45.5330000  -1.3520000 -13.5040000
  44.9180000  -0.8890000 -15.1100000  45.3920000  -3.0070000 -14.8880000
  46.3860000  -2.8440000 -15.3110000  44.4140000  -3.5510000 -15.9620000
  44.1310000  -2.7540000 -16.6540000  43.5100000  -3.9030000 -15.4590000
  44.9940000  -4.6580000 -16.7090000  45.8310000  -4.4060000 -18.0700000
  44.6730000  -4.0530000 -19.1260000  43.8380000  -5.0900000 -19.6720000
  43.4320000  -5.6840000 -18.8490000  44.4320000  -5.7450000 -20.3140000
  42.6700000  -4.4470000 -20.4560000  42.1110000  -3.7890000 -19.7880000
  42.0000000  -5.2410000 -20.7870000  42.9870000  -3.6320000 -21.6890000
  41.7090000  -3.3100000 -22.3900000  41.2240000  -4.2420000 -22.6810000
  41.9370000  -2.7120000 -23.2740000  41.0700000  -2.7460000 -21.7090000
  43.6530000  -2.3410000 -21.3430000  44.6010000  -2.5660000 -20.8510000
  43.0040000  -1.7850000 -20.6650000  43.8250000  -1.7760000 -22.2600000
  43.8580000  -4.3920000 -22.6360000  44.8200000  -4.5700000 -22.1530000
  43.9960000  -3.7940000 -23.5370000  43.3690000  -5.3370000 -22.8780000
  46.6800000  -3.1940000 -17.9050000  46.4760000  -5.6840000 -18.4790000
  45.4360000  -3.9510000 -13.7800000  46.4650000  -4.8130000 -13.6710000
  47.4410000  -4.8350000 -14.4030000  46.2890000  -5.7420000 -12.4950000
  47.2610000  -6.1460000 -12.2070000  45.9000000  -5.1620000 -11.6550000
  45.3190000  -6.8910000 -12.8340000  44.3430000  -6.4680000 -13.0820000
  45.6780000  -7.4050000 -13.7280000  45.1400000  -7.9340000 -11.7100000
  44.4170000  -8.6710000 -12.0660000  46.0770000  -8.4700000 -11.5470000
  44.6230000  -7.3630000 -10.3720000  44.0050000  -6.4830000 -10.5650000
  43.9760000  -8.1070000  -9.9030000  45.7460000  -7.0150000  -9.3750000
  46.2910000  -7.9260000  -9.1180000  46.4590000  -6.3330000  -9.8420000
  45.1990000  -6.3600000  -8.0920000  44.5750000  -5.5090000  -8.3710000
  44.5600000  -7.0660000  -7.5580000  46.3050000  -5.8450000  -7.1530000
  46.9730000  -5.2010000  -7.7280000  45.8420000  -5.2280000  -6.3790000
  47.0990000  -6.9780000  -6.5350000  47.2460000  -7.8480000  -7.1700000
  47.5480000  -7.0020000  -5.2850000  48.0760000  -7.8820000  -4.9250000
  47.4620000  -5.8550000  -4.2980000  48.3820000  -5.8080000  -3.7120000
  47.3880000  -4.9000000  -4.8220000  46.2640000  -5.9900000  -3.3390000
  46.3040000  -5.1600000  -2.6300000  45.3390000  -5.8870000  -3.9100000
  46.2370000  -7.3140000  -2.5480000  46.0520000  -8.1440000  -3.2320000
  47.2190000  -7.4810000  -2.0990000  45.1850000  -7.3300000  -1.4210000
  45.2300000  -8.2960000  -0.9130000  45.4610000  -6.5810000  -0.6760000
  43.7350000  -7.0580000  -1.8780000  43.0840000  -7.0780000  -1.0010000
  43.6680000  -6.0470000  -2.2850000  43.1990000  -8.0530000  -2.9290000
  42.1550000  -7.8090000  -3.1370000  43.7450000  -7.9180000  -3.8640000
  43.2920000  -9.5340000  -2.5110000  42.8750000 -10.1480000  -3.3110000
  44.3410000  -9.8180000  -2.4050000  42.5510000  -9.8570000  -1.2040000
  42.6400000 -10.9210000  -0.9760000  41.4910000  -9.6090000  -1.2940000
  42.9720000  -9.2970000  -0.3650000  37.1690000 -11.9170000  -1.6370000
  37.7050000 -11.5570000  -0.7560000  37.5430000 -12.9120000  -1.8890000
  36.1080000 -11.9960000  -1.3910000  37.3700000 -10.9500000  -2.8140000
  38.4380000 -10.8460000  -3.0170000  36.9930000  -9.9650000  -2.5330000
  36.6460000 -11.4340000  -4.0840000  35.5810000 -11.5450000  -3.8670000
  37.0210000 -12.4180000  -4.3730000  36.8200000 -10.4520000  -5.2560000
  37.8820000 -10.2990000  -5.4570000  36.3990000  -9.4880000  -4.9640000
  36.1240000 -10.9450000  -6.5380000  35.1290000 -11.3150000  -6.2850000
  36.6870000 -11.7760000  -6.9680000  35.9820000  -9.8100000  -7.5680000
  36.9660000  -9.4430000  -7.8670000  35.4640000  -8.9800000  -7.0840000
  35.1670000 -10.2090000  -8.8100000  34.7330000  -9.2970000  -9.2250000
  34.3370000 -10.8540000  -8.5130000  35.9990000 -10.8950000  -9.9090000
  36.4750000 -11.7880000  -9.4990000  36.7980000 -10.2180000 -10.2160000
  35.1820000 -11.2940000 -11.1580000  34.5310000 -12.1360000 -10.9130000
  35.8840000 -11.6510000 -11.9140000  34.3320000 -10.1590000 -11.7740000
  34.3060000 -10.2940000 -12.8580000  34.8090000  -9.1960000 -11.5820000
  32.8760000 -10.1600000 -11.2580000  32.8600000 -10.0850000 -10.1690000
  32.4240000 -11.1220000 -11.5090000  31.9780000  -9.0470000 -11.8330000
  30.9620000  -9.2410000 -11.4820000  31.9460000  -9.1230000 -12.9220000
  32.3530000  -7.6110000 -11.4070000  32.8990000  -7.6230000 -10.4610000
  31.4220000  -7.0690000 -11.2260000  33.1510000  -6.8360000 -12.4740000
  32.6540000  -6.9680000 -13.4370000  34.1580000  -7.2490000 -12.5690000
  33.2360000  -5.3290000 -12.1520000  33.8740000  -5.1630000 -11.2820000
  32.2400000  -4.9490000 -11.9160000  33.7690000  -4.5500000 -13.3290000
  34.8160000  -3.9310000 -13.3220000  32.9380000  -4.6120000 -14.3880000
  33.4010000  -4.1560000 -15.6920000  34.0570000  -3.2870000 -15.5930000
  32.5250000  -3.8510000 -16.2700000  34.1100000  -5.3050000 -16.4620000
  34.4020000  -4.9420000 -17.4500000  33.1860000  -6.5250000 -16.6560000
  32.2700000  -6.4260000 -16.0690000  33.7060000  -7.4260000 -16.3180000
  32.8630000  -6.6650000 -18.0630000  32.3410000  -8.0660000 -18.6580000
  33.6470000  -8.9950000 -18.5330000  34.7020000  -8.9080000 -19.5090000
  35.0850000  -7.8850000 -19.5530000  34.2930000  -9.1700000 -20.4890000
  35.8170000  -9.9150000 -19.1430000  36.4720000 -10.0380000 -20.0070000
  35.3590000 -10.8810000 -18.9260000  36.7290000  -9.6030000 -17.9780000
  37.4590000  -8.3170000 -18.2020000  37.9700000  -8.3700000 -19.1640000
  38.1880000  -8.1850000 -17.4000000  36.7400000  -7.4970000 -18.2000000
  35.9800000  -9.5240000 -16.6880000  35.4550000 -10.4670000 -16.5350000
  35.2610000  -8.7070000 -16.7600000  36.6860000  -9.3430000 -15.8760000
  37.7410000 -10.6950000 -17.8620000  37.2210000 -11.6350000 -17.6700000
  38.4170000 -10.4640000 -17.0380000  38.2990000 -10.7570000 -18.7980000
  31.2850000  -8.6000000 -17.7590000  32.0200000  -7.8670000 -20.0970000
  35.2960000  -5.7850000 -15.7700000  36.4400000  -5.0890000 -15.8960000
  36.5260000  -4.0190000 -16.4720000  37.6140000  -5.8130000 -15.2850000
  37.4860000  -6.8830000 -15.4630000  38.5340000  -5.5050000 -15.7870000
  37.7300000  -5.5720000 -13.7670000  36.7640000  -5.7740000 -13.2990000
  38.4380000  -6.2940000 -13.3560000  38.2070000  -4.1500000 -13.4060000
  39.2690000  -4.0530000 -13.6410000  37.6720000  -3.4190000 -14.0160000
  37.9650000  -3.7930000 -11.9280000  38.3210000  -2.7770000 -11.7450000
  36.8870000  -3.7900000 -11.7560000  38.6380000  -4.7540000 -10.9290000
  38.3320000  -5.7820000 -11.1350000  39.7190000  -4.7150000 -11.0770000
  38.3110000  -4.4200000  -9.4570000  38.8300000  -5.1310000  -8.8120000
  38.7100000  -3.4310000  -9.2240000  36.8040000  -4.4390000  -9.1120000
  36.6780000  -4.1800000  -8.0580000  36.2960000  -3.6640000  -9.6900000
  36.1670000  -5.7840000  -9.3950000  36.6340000  -6.3700000 -10.1830000
  35.1610000  -6.3150000  -8.7110000  34.8070000  -7.3090000  -8.9750000
  34.3560000  -5.6210000  -7.6350000  34.3680000  -4.5380000  -7.7790000
  33.3160000  -5.9430000  -7.7220000  34.8740000  -5.9560000  -6.2250000
  34.9590000  -7.0400000  -6.1160000  35.8720000  -5.5330000  -6.0950000
  33.9350000  -5.4200000  -5.1310000  33.7980000  -4.3440000  -5.2620000
  32.9570000  -5.8910000  -5.2460000  34.4620000  -5.6950000  -3.7120000
  34.7390000  -6.7480000  -3.6220000  35.3630000  -5.1020000  -3.5410000
  33.4050000  -5.3640000  -2.6420000  33.0370000  -4.3480000  -2.8010000
  32.5580000  -6.0420000  -2.7580000  33.9580000  -5.4750000  -1.2100000
  34.4560000  -6.4380000  -1.0830000  34.7060000  -4.6940000  -1.0590000
  32.8530000  -5.3390000  -0.1480000  32.2470000  -4.4540000  -0.3540000
  32.1850000  -6.2010000  -0.2060000  33.4340000  -5.2360000   1.2720000
  32.6290000  -5.1660000   2.0070000  34.0640000  -4.3490000   1.3650000
  34.0420000  -6.1140000   1.5010000  12.7090000  32.3790000   0.0280000
  12.9050000  32.4320000   1.1010000  13.5230000  31.8270000  -0.4450000
  11.7790000  31.8290000  -0.1300000  12.6020000  33.7950000  -0.5620000
  13.5190000  34.3440000  -0.3390000  11.7760000  34.3250000  -0.0840000
  12.3790000  33.7610000  -2.0830000  11.4720000  33.1900000  -2.2920000
  13.2130000  33.2330000  -2.5520000  12.2600000  35.1680000  -2.7000000
  13.1080000  35.7740000  -2.3760000  11.3560000  35.6570000  -2.3320000
  12.2430000  35.1410000  -4.2410000  13.1480000  34.6410000  -4.5930000
  12.2810000  36.1690000  -4.6050000  11.0050000  34.4380000  -4.8380000
  10.1160000  35.0370000  -4.6340000  10.8590000  33.4680000  -4.3570000
  11.1240000  34.1910000  -6.3540000  10.2310000  33.6610000  -6.6920000
  11.9750000  33.5330000  -6.5400000  11.2920000  35.4790000  -7.1810000
  12.1980000  36.0010000  -6.8660000  10.4460000  36.1440000  -6.9970000
  11.3930000  35.1820000  -8.6870000  10.4740000  34.7000000  -9.0260000
  12.2160000  34.4870000  -8.8630000  11.6360000  36.4680000  -9.4930000
  12.5270000  36.9620000  -9.1010000  10.7990000  37.1540000  -9.3500000
  11.8520000  36.2280000 -10.9970000  12.6760000  35.5260000 -11.1390000
  12.1540000  37.1810000 -11.4360000  10.6030000  35.6900000 -11.7260000
   9.7600000  36.3520000 -11.5200000  10.3450000  34.7060000 -11.3300000
  10.7840000  35.5760000 -13.2530000   9.8570000  35.1930000 -13.6850000
  11.5680000  34.8460000 -13.4680000  11.1390000  36.9160000 -13.9240000
  12.1130000  37.2540000 -13.5620000  10.4010000  37.6710000 -13.6460000
  11.2080000  36.8080000 -15.4580000  10.2190000  36.6050000 -15.8740000
  11.8580000  35.9720000 -15.7250000  11.7690000  38.0590000 -16.0960000
  11.8490000  39.1430000 -15.5370000  12.1730000  37.8270000 -17.3630000
  13.0990000  38.7790000 -17.9720000  12.8800000  39.7950000 -17.6340000
  12.9500000  38.7530000 -19.0540000  14.5830000  38.4190000 -17.6650000
  15.1900000  39.2950000 -17.9060000  15.0730000  37.2200000 -18.5250000
  16.1640000  37.2230000 -18.5810000  14.6860000  37.3370000 -19.5410000
  14.6390000  35.9390000 -17.9890000  14.4190000  34.6620000 -18.9520000
  12.9880000  34.9740000 -19.6100000  11.7920000  34.8580000 -18.8170000
  12.0210000  35.1730000 -17.7950000  11.4600000  33.8170000 -18.7920000
  10.7070000  35.7990000 -19.3870000  11.1300000  36.8000000 -19.4820000
   9.8790000  35.8460000 -18.6790000  10.0920000  35.4580000 -20.7230000
   9.0500000  36.4780000 -21.0430000   8.2970000  36.4660000 -20.2540000
   8.5960000  36.2220000 -22.0010000   9.5300000  37.4560000 -21.1030000
  11.0990000  35.4680000 -21.8250000  11.8410000  34.6960000 -21.6170000
  11.5790000  36.4470000 -21.8480000  10.5920000  35.2640000 -22.7690000
   9.4340000  34.1180000 -20.6760000  10.1980000  33.3610000 -20.4940000
   8.9470000  33.9360000 -21.6350000   8.6970000  34.1190000 -19.8710000
  15.4420000  34.6880000 -20.0350000  14.3030000  33.4390000 -18.1090000
  14.7170000  38.1210000 -16.2430000  15.9410000  37.9690000 -15.7120000
  16.9820000  38.2020000 -16.3010000  15.8920000  37.4790000 -14.2830000
  16.9110000  37.4530000 -13.8920000  15.3110000  38.1830000 -13.6840000
  15.2660000  36.0710000 -14.1810000  14.2490000  36.1040000 -14.5770000
  15.8310000  35.3770000 -14.8060000  15.2090000  35.5250000 -12.7390000
  14.6540000  36.2300000 -12.1160000  14.6470000  34.5890000 -12.7490000
  16.5960000  35.2670000 -12.1160000  17.1920000  34.6800000 -12.8180000
  17.1180000  36.2150000 -11.9720000  16.5420000  34.5020000 -10.7770000
  16.1540000  33.4980000 -10.9640000  17.5600000  34.3810000 -10.4020000
  15.6820000  35.1550000  -9.6740000  14.6430000  35.2130000 -10.0060000
  15.6960000  34.5100000  -8.7930000  16.1680000  36.5600000  -9.2690000
  17.1940000  36.5020000  -8.8990000  16.1820000  37.2000000 -10.1530000
  15.2540000  37.1880000  -8.2370000  14.4320000  37.7660000  -8.6530000
  15.4030000  37.1380000  -6.9180000  14.6850000  37.6600000  -6.2890000
  16.4740000  36.3780000  -6.1650000  16.0000000  35.7050000  -5.4470000
  17.0600000  35.7490000  -6.8390000  17.4300000  37.3270000  -5.4150000
  18.1990000  36.7320000  -4.9190000  17.9460000  37.9520000  -6.1460000
  16.7520000  38.2500000  -4.3770000  17.5220000  38.8680000  -3.9090000
  16.0750000  38.9340000  -4.8930000  15.9630000  37.5230000  -3.2660000
  15.5300000  38.2830000  -2.6130000  15.1320000  36.9680000  -3.7060000
  16.8340000  36.5660000  -2.4260000  17.2560000  35.7970000  -3.0770000
  17.6750000  37.1240000  -2.0080000  16.0670000  35.8600000  -1.2890000
  15.2960000  35.2250000  -1.7310000  16.7570000  35.1960000  -0.7640000
  15.4030000  36.7980000  -0.2600000  14.6150000  37.3780000  -0.7450000
  14.9170000  36.1880000   0.5050000  16.3860000  37.7580000   0.4310000
  15.8570000  38.3680000   1.1670000  16.8520000  38.4290000  -0.2940000
  17.1690000  37.1990000   0.9460000  45.5540000 -12.6720000  -1.2850000
  45.3740000 -13.4550000  -0.5460000  44.5980000 -12.4200000  -1.7480000
  45.9320000 -11.7870000  -0.7690000  46.5700000 -13.1560000  -2.3350000
  46.2000000 -14.0710000  -2.8020000  47.5020000 -13.4090000  -1.8240000
  46.8690000 -12.1060000  -3.4220000  47.7220000 -12.4440000  -4.0150000
  47.1640000 -11.1720000  -2.9390000  45.6800000 -11.8450000  -4.3680000
  44.7860000 -11.6210000  -3.7820000  45.4710000 -12.7490000  -4.9430000
  45.9570000 -10.6670000  -5.3210000  46.7760000 -10.9220000  -5.9970000
  46.2850000  -9.8090000  -4.7300000  44.7210000 -10.2420000  -6.1360000
  44.9330000  -9.2850000  -6.6150000  43.8810000 -10.0800000  -5.4570000
  44.3160000 -11.2550000  -7.2230000  44.1730000 -12.2430000  -6.7830000
  45.1250000 -11.3310000  -7.9530000  43.0120000 -10.8260000  -7.9220000
  43.0820000  -9.7790000  -8.2220000  42.1950000 -10.8960000  -7.2010000
  42.6630000 -11.6800000  -9.1550000  41.6230000 -11.4820000  -9.4210000
  42.7400000 -12.7410000  -8.9060000  43.5510000 -11.3610000 -10.3730000
  44.5880000 -11.6230000 -10.1530000  43.5130000 -10.2850000 -10.5580000
  43.0850000 -12.0980000 -11.6420000  42.0100000 -11.9490000 -11.7570000
  43.2550000 -13.1710000 -11.5280000  43.7630000 -11.5990000 -12.9310000
  43.5480000 -10.5350000 -13.0480000  43.3060000 -12.1100000 -13.7810000
  45.2860000 -11.8220000 -12.9810000  45.4920000 -12.8940000 -12.9860000
  45.7580000 -11.3970000 -12.0930000  45.8960000 -11.1600000 -14.2320000
  45.7380000 -10.0810000 -14.1650000  45.3700000 -11.5060000 -15.1240000
  47.4030000 -11.4260000 -14.4010000  47.9340000 -11.1970000 -13.4750000
  47.7970000 -10.7680000 -15.1790000  47.6740000 -12.8560000 -14.8010000
  48.0550000 -13.7090000 -14.0140000  47.4880000 -13.0570000 -16.1250000
  47.5480000 -14.4160000 -16.6550000  48.2770000 -15.0120000 -16.0990000
  47.8980000 -14.3560000 -17.6890000  46.1670000 -15.1370000 -16.6570000
  46.3700000 -16.1670000 -16.9620000  45.1570000 -14.5240000 -17.6690000
  44.3290000 -15.2270000 -17.7930000  45.6380000 -14.4070000 -18.6440000
  44.6320000 -13.2310000 -17.2500000  43.0390000 -12.9400000 -17.2240000
  42.6720000 -12.9690000 -18.7920000  43.0160000 -11.8630000 -19.6490000
  43.7530000 -11.2280000 -19.1500000  42.1240000 -11.2650000 -19.8480000
  43.6460000 -12.3990000 -20.9570000  44.5430000 -12.9700000 -20.7140000
  43.9450000 -11.5440000 -21.5660000  42.8100000 -13.2770000 -21.8590000
  42.6030000 -14.6340000 -21.2680000  43.5790000 -15.0850000 -21.0800000
  42.0300000 -15.2400000 -21.9710000  42.0560000 -14.5200000 -20.3310000
  41.4790000 -12.6590000 -22.1420000  41.6380000 -11.6670000 -22.5670000
  40.9240000 -12.5910000 -21.2050000  40.9450000 -13.2940000 -22.8500000
  43.5290000 -13.4490000 -23.1560000  43.6570000 -12.4680000 -23.6170000
  42.9320000 -14.0940000 -23.8030000  44.5000000 -13.9050000 -22.9600000
  42.3350000 -14.0740000 -16.5630000  42.8040000 -11.5570000 -16.7190000
  45.6080000 -15.1430000 -15.3130000  44.7860000 -16.1520000 -14.9660000
  44.4100000 -17.0330000 -15.7220000  44.4340000 -16.1200000 -13.4980000
  44.1120000 -15.1130000 -13.2230000  43.6050000 -16.8070000 -13.3150000
  45.6610000 -16.5390000 -12.6660000  46.0730000 -17.4570000 -13.0900000
  46.4350000 -15.7730000 -12.7510000  45.3600000 -16.7920000 -11.1800000
  44.6470000 -17.6150000 -11.1050000  46.2830000 -17.1150000 -10.6940000
  44.8140000 -15.5570000 -10.4380000  45.5100000 -14.7260000 -10.5680000
  43.8610000 -15.2570000 -10.8780000  44.6100000 -15.8050000  -8.9310000
  45.5550000 -16.1170000  -8.4820000  44.3240000 -14.8620000  -8.4600000
  43.5230000 -16.8580000  -8.6400000  42.6010000 -16.5610000  -9.1430000
  43.8180000 -17.8250000  -9.0530000  43.2350000 -17.0220000  -7.1370000
  43.1130000 -16.0370000  -6.6830000  42.2800000 -17.5410000  -7.0310000
  44.3020000 -17.8430000  -6.4410000  44.4060000 -18.8610000  -6.8090000
  45.0480000 -17.4500000  -5.4140000  45.7590000 -18.1470000  -4.9770000
  45.0490000 -16.0660000  -4.7970000  45.9720000 -15.9300000  -4.2300000
  45.0550000 -15.3090000  -5.5840000  43.8380000 -15.8210000  -3.8730000
  43.9310000 -14.8240000  -3.4390000  42.9300000 -15.8170000  -4.4810000
  43.6470000 -16.8490000  -2.7400000  42.6680000 -16.6860000  -2.2840000
  43.6350000 -17.8570000  -3.1580000  44.7190000 -16.7590000  -1.6390000
  45.7130000 -16.8520000  -2.0820000  44.6610000 -15.7810000  -1.1550000
  44.5320000 -17.8660000  -0.5860000  43.5240000 -17.8000000  -0.1710000
  44.6190000 -18.8370000  -1.0780000  45.5640000 -17.7800000   0.5550000
  46.5570000 -17.6330000   0.1260000  45.3460000 -16.9050000   1.1700000
  45.5960000 -19.0380000   1.4460000  45.9220000 -19.8930000   0.8490000
  46.3390000 -18.8930000   2.2330000  44.2440000 -19.3720000   2.0940000
  44.3430000 -20.2400000   2.7490000  43.4990000 -19.6080000   1.3300000
  43.8830000 -18.5290000   2.6870000 -33.8340000 -12.8860000  -0.8070000
 -33.7990000 -13.9710000  -0.9300000 -34.4740000 -12.6610000   0.0490000
 -32.8240000 -12.5280000  -0.6010000 -34.3920000 -12.2270000  -2.0770000
 -35.4270000 -12.5500000  -2.2090000 -33.8200000 -12.5830000  -2.9370000
 -34.3540000 -10.6890000  -2.0460000 -33.3270000 -10.3520000  -1.8920000
 -34.9490000 -10.3300000  -1.2040000 -34.9030000 -10.0880000  -3.3540000
 -35.9390000 -10.4060000  -3.4850000 -34.3290000 -10.4870000  -4.1920000
 -34.8400000  -8.5470000  -3.3750000 -33.7980000  -8.2250000  -3.3170000
 -35.3480000  -8.1600000  -2.4890000 -35.5020000  -7.9200000  -4.6170000
 -35.4570000  -6.8330000  -4.5230000 -36.5580000  -8.1970000  -4.6350000
 -34.8450000  -8.3350000  -5.9480000 -34.9110000  -9.4180000  -6.0700000
 -33.7870000  -8.0660000  -5.9240000 -35.5300000  -7.6600000  -7.1510000
 -35.4420000  -6.5760000  -7.0600000 -36.5960000  -7.8970000  -7.1280000
 -34.9650000  -8.1030000  -8.5140000 -35.5560000  -7.6280000  -9.3000000
 -35.0980000  -9.1820000  -8.6150000 -33.4740000  -7.7730000  -8.7190000
 -32.8830000  -8.3620000  -8.0130000 -33.2940000  -6.7190000  -8.4970000
 -32.9940000  -8.0930000 -10.1490000 -33.4060000  -9.0580000 -10.4500000
 -31.9070000  -8.1960000 -10.1500000 -33.3830000  -6.9970000 -11.1640000
 -32.8150000  -6.0930000 -10.9370000 -34.4390000  -6.7430000 -11.0460000
 -33.1350000  -7.3900000 -12.6340000 -32.0940000  -7.6910000 -12.7700000
 -33.3040000  -6.5090000 -13.2580000 -34.0750000  -8.5180000 -13.0990000
 -35.0910000  -8.2640000 -12.7870000 -33.8040000  -9.4520000 -12.6030000
 -34.0620000  -8.7330000 -14.6290000 -33.0500000  -8.9810000 -14.9560000
 -34.3560000  -7.8040000 -15.1220000 -35.0070000  -9.8260000 -15.0920000
 -34.8660000 -10.4320000 -16.1410000 -36.0120000 -10.0790000 -14.2310000
 -37.2060000 -10.7850000 -14.6790000 -37.4860000 -11.4810000 -13.8830000
 -37.0220000 -11.3670000 -15.5860000 -38.4050000  -9.8200000 -14.8870000
 -39.2980000 -10.4490000 -14.9200000 -38.3570000  -8.9950000 -16.2010000
 -39.2490000  -8.3660000 -16.2460000 -38.3820000  -9.6810000 -17.0520000
 -37.1790000  -8.1470000 -16.3000000 -36.9580000  -7.1350000 -17.5450000
 -36.1320000  -8.0180000 -18.6090000 -36.7990000  -8.8920000 -19.5390000
 -37.4970000  -8.3030000 -20.1390000 -37.3610000  -9.6580000 -18.9990000
 -35.7500000  -9.5370000 -20.4760000 -35.1850000  -8.7480000 -20.9730000
 -36.2760000 -10.1110000 -21.2410000 -34.7290000 -10.4790000 -19.8820000
 -35.3720000 -11.5760000 -19.1010000 -35.8650000 -11.1300000 -18.2360000
 -34.5810000 -12.2500000 -18.7680000 -36.0890000 -12.0970000 -19.7370000
 -33.9420000 -11.0940000 -20.9890000 -33.4870000 -10.2980000 -21.5790000
 -34.6110000 -11.6940000 -21.6080000 -33.1670000 -11.7180000 -20.5400000
 -33.7660000  -9.7750000 -18.9930000 -33.2570000  -9.0010000 -19.5690000
 -33.0690000 -10.5230000 -18.6110000 -34.3300000  -9.3340000 -18.1700000
 -38.2830000  -6.7940000 -18.1350000 -36.0740000  -6.0260000 -17.0920000
 -38.4790000  -8.9400000 -13.7310000 -39.6750000  -8.6090000 -13.2180000
 -40.7360000  -8.8340000 -13.7740000 -39.5750000  -7.9410000 -11.8640000
 -39.3830000  -6.8770000 -12.0210000 -40.5380000  -8.0320000 -11.3570000
 -38.4640000  -8.5170000 -10.9530000 -37.4880000  -8.3070000 -11.3960000
 -38.4960000  -7.9810000 -10.0020000 -38.5710000 -10.0310000 -10.6710000
 -39.5750000 -10.2530000 -10.3020000 -38.4230000 -10.5930000 -11.5960000
 -37.5220000 -10.4710000  -9.6310000 -36.5430000 -10.1250000  -9.9680000
 -37.7270000  -9.9660000  -8.6850000 -37.4150000 -11.9890000  -9.3790000
 -36.9580000 -12.4550000 -10.2550000 -36.7240000 -12.1460000  -8.5490000
 -38.7360000 -12.7290000  -9.0790000 -39.3200000 -12.7790000 -10.0000000
 -38.5000000 -13.7610000  -8.8100000 -39.6170000 -12.1190000  -7.9690000
 -39.9340000 -11.1150000  -8.2590000 -40.5210000 -12.7280000  -7.8990000
 -38.9430000 -12.1130000  -6.6120000 -38.4890000 -13.0570000  -6.3200000
 -38.9140000 -11.0870000  -5.7670000 -38.4210000 -11.2070000  -4.8050000
 -39.4740000  -9.7020000  -6.0290000 -39.0240000  -8.9960000  -5.3270000
 -39.1830000  -9.3630000  -7.0250000 -41.0130000  -9.6310000  -5.9080000
 -41.3280000  -8.6010000  -6.0830000 -41.4600000 -10.2340000  -6.7010000
 -41.5900000 -10.1030000  -4.5580000 -42.6780000 -10.0170000  -4.6010000
 -41.3570000 -11.1610000  -4.4200000 -41.0730000  -9.2920000  -3.3540000
 -39.9970000  -9.4400000  -3.2490000 -41.2410000  -8.2300000  -3.5440000
 -41.7620000  -9.6670000  -2.0290000 -41.4290000  -8.9730000  -1.2540000
 -42.8410000  -9.5410000  -2.1370000 -41.4600000 -11.1030000  -1.5640000
 -41.7730000 -11.8150000  -2.3300000 -40.3840000 -11.2190000  -1.4240000
 -42.1880000 -11.4400000  -0.2520000 -41.8960000 -10.7310000   0.5260000
 -43.2650000 -11.3430000  -0.4030000 -41.8710000 -12.8650000   0.2220000
 -42.4680000 -13.1120000   1.1020000 -40.8140000 -12.9540000   0.4790000
 -42.0980000 -13.5840000  -0.5680000  30.0260000 -24.9870000   0.7350000
  30.0080000 -23.9350000   1.0300000  31.0100000 -25.2130000   0.3210000
  29.8750000 -25.5970000   1.6280000  28.9240000 -25.2670000  -0.3010000
  29.0650000 -24.6020000  -1.1560000  27.9550000 -25.0300000   0.1450000
  28.9230000 -26.7330000  -0.7780000  28.9060000 -27.3880000   0.0960000
  29.8520000 -26.9390000  -1.3150000  27.7220000 -27.0960000  -1.6760000
  26.8000000 -26.9460000  -1.1110000  27.7850000 -28.1600000  -1.9180000
  27.6420000 -26.2960000  -2.9910000  28.5540000 -26.4590000  -3.5690000
  27.5860000 -25.2300000  -2.7630000  26.4180000 -26.6860000  -3.8460000
  25.5110000 -26.6010000  -3.2450000  26.5080000 -27.7300000  -4.1550000
  26.2920000 -25.7890000  -5.0910000  27.1580000 -25.9540000  -5.7360000
  26.3230000 -24.7430000  -4.7780000  25.0050000 -26.0040000  -5.9130000
  25.0300000 -25.2990000  -6.7460000  24.1360000 -25.7450000  -5.3040000
  24.8330000 -27.4420000  -6.4500000  24.5510000 -28.0960000  -5.6220000
  25.7910000 -27.8030000  -6.8280000  23.7750000 -27.5690000  -7.5700000
  22.8320000 -27.1340000  -7.2310000  23.5940000 -28.6290000  -7.7610000
  24.2170000 -26.8970000  -8.8870000  25.1650000 -27.3360000  -9.2050000
  24.3970000 -25.8350000  -8.7100000  23.1990000 -27.0260000 -10.0390000
  22.2410000 -26.6000000  -9.7340000  23.0390000 -28.0810000 -10.2730000
  23.7170000 -26.2810000 -11.2850000  24.6580000 -26.7360000 -11.6010000
  23.9480000 -25.2510000 -11.0050000  22.7550000 -26.2410000 -12.4870000
  23.2710000 -25.7040000 -13.2860000  21.8650000 -25.6610000 -12.2300000
  22.3220000 -27.6220000 -13.0190000  21.4850000 -28.0120000 -12.4350000
  23.1480000 -28.3270000 -12.9070000  21.9390000 -27.5830000 -14.4860000
  21.5900000 -26.5840000 -15.0970000  22.0990000 -28.7960000 -15.0610000
  21.9990000 -28.9180000 -16.5130000  21.1180000 -28.3850000 -16.8790000
  21.8850000 -29.9780000 -16.7530000  23.2870000 -28.3890000 -17.2040000
  23.3280000 -27.3000000 -17.1150000  23.3030000 -28.7380000 -18.7090000
  22.3060000 -28.5590000 -19.1190000  23.5500000 -29.7920000 -18.8530000
  24.2330000 -27.8780000 -19.4320000  25.7340000 -28.3330000 -19.8430000
  26.5990000 -28.1080000 -18.4970000  26.9450000 -26.7820000 -18.0440000
  27.1130000 -26.8110000 -16.9650000  26.1070000 -26.1080000 -18.2380000
  28.2210000 -26.2660000 -18.7520000  28.3830000 -25.2280000 -18.4580000
  28.0650000 -26.2880000 -19.8310000  29.5330000 -26.9720000 -18.5050000
  29.5390000 -28.3550000 -19.0610000  28.7760000 -28.9350000 -18.5380000
  30.5290000 -28.7810000 -18.8970000  29.3100000 -28.3000000 -20.1260000
  30.6120000 -26.2050000 -19.1870000  30.6480000 -25.1980000 -18.7680000
  30.3940000 -26.1690000 -20.2560000  31.5560000 -26.7220000 -19.0090000
  29.8640000 -27.0410000 -17.0510000  29.8520000 -26.0300000 -16.6400000
  30.8610000 -27.4750000 -16.9600000  29.1290000 -27.6740000 -16.5530000
  25.7310000 -29.7860000 -20.1600000  26.2150000 -27.3890000 -20.8900000
  24.4350000 -29.0260000 -16.5780000  25.0780000 -28.3540000 -15.6060000
  24.8960000 -27.1780000 -15.3390000  26.0280000 -29.2510000 -14.8520000
  25.5580000 -30.2300000 -14.7420000  26.9400000 -29.3810000 -15.4380000
  26.3680000 -28.6890000 -13.4590000  26.9520000 -27.7720000 -13.5700000
  25.4460000 -28.4330000 -12.9310000  27.1530000 -29.6980000 -12.6120000
  26.5330000 -30.5790000 -12.4330000  28.0350000 -30.0240000 -13.1670000
  27.5860000 -29.0940000 -11.2660000  28.1810000 -28.1970000 -11.4470000
  26.7000000 -28.7990000 -10.7000000  28.4180000 -30.1000000 -10.4560000
  27.8050000 -30.9770000 -10.2370000  29.2490000 -30.4380000 -11.0770000
  28.9750000 -29.5200000  -9.1410000  29.7070000 -30.2180000  -8.7300000
  29.5060000 -28.5910000  -9.3550000  27.8900000 -29.2550000  -8.0800000
  28.3420000 -28.7490000  -7.2240000  27.1460000 -28.5660000  -8.4840000
  27.2110000 -30.5390000  -7.6440000  26.3530000 -30.8330000  -8.2430000
  27.5660000 -31.2890000  -6.6050000  26.9980000 -32.1880000  -6.3780000
  28.7480000 -31.0270000  -5.6930000  29.3530000 -31.9320000  -5.6080000
  29.3980000 -30.2540000  -6.1090000  28.2930000 -30.5900000  -4.2900000
  29.1630000 -30.2370000  -3.7330000  27.6090000 -29.7450000  -4.3890000
  27.6200000 -31.7280000  -3.4980000  26.7630000 -32.1160000  -4.0520000
  28.3370000 -32.5460000  -3.3990000  27.1660000 -31.2930000  -2.0920000
  26.9540000 -32.1810000  -1.4940000  27.9830000 -30.7630000  -1.5970000
  25.9100000 -30.4030000  -2.1160000  26.0800000 -29.5460000  -2.7710000
  25.0700000 -30.9670000  -2.5300000  25.5440000 -29.8920000  -0.7130000
  25.2970000 -30.7370000  -0.0660000  26.4100000 -29.3900000  -0.2780000
  24.3590000 -28.9120000  -0.7530000  24.5550000 -28.1320000  -1.4920000
  23.4570000 -29.4410000  -1.0640000  24.1210000 -28.2470000   0.6100000
  23.2670000 -27.5690000   0.5460000  24.9960000 -27.6710000   0.9150000
  23.9140000 -28.9980000   1.3760000  34.4030000 -18.1350000   0.3020000
  35.3170000 -17.9930000   0.8830000  34.3400000 -19.1870000   0.0150000
  33.5470000 -17.8970000   0.9370000  34.4180000 -17.2330000  -0.9410000
  35.2560000 -17.5150000  -1.5820000  34.5940000 -16.2020000  -0.6280000
  33.1060000 -17.2830000  -1.7490000  33.1900000 -16.5930000  -2.5920000
  32.2910000 -16.9160000  -1.1220000  32.7300000 -18.6790000  -2.2870000
  31.7890000 -18.5930000  -2.8340000  32.5540000 -19.3630000  -1.4550000
  33.8000000 -19.2730000  -3.2230000  34.7230000 -19.4470000  -2.6650000
  34.0180000 -18.5430000  -4.0050000  33.3440000 -20.5990000  -3.8620000
  32.4300000 -20.4270000  -4.4350000  33.0940000 -21.3080000  -3.0710000
  34.4090000 -21.2380000  -4.7780000  33.9920000 -22.1430000  -5.2250000
  35.2560000 -21.5500000  -4.1640000  34.9320000 -20.3170000  -5.8990000
  35.6840000 -20.8600000  -6.4750000  35.4410000 -19.4670000  -5.4390000
  33.8340000 -19.8120000  -6.8600000  33.0740000 -19.2640000  -6.2990000
  33.3390000 -20.6740000  -7.3130000  34.3670000 -18.8980000  -7.9830000
  33.5460000 -18.6800000  -8.6680000  35.1320000 -19.4320000  -8.5510000
  34.9520000 -17.5730000  -7.4520000  35.7780000 -17.7920000  -6.7720000
  34.1920000 -17.0480000  -6.8700000  35.4850000 -16.6360000  -8.5510000
  36.2270000 -17.1690000  -9.1490000  35.9990000 -15.8030000  -8.0660000
  34.3780000 -16.0710000  -9.4630000  33.5760000 -15.6770000  -8.8360000
  33.9470000 -16.8730000 -10.0660000  34.8720000 -14.9290000 -10.3770000
  35.2940000 -14.1490000  -9.7410000  34.0140000 -14.4860000 -10.8880000
  35.9330000 -15.3260000 -11.4280000  36.6750000 -16.0000000 -10.9960000
  36.4600000 -14.4250000 -11.7490000  35.3210000 -15.9630000 -12.6540000
  35.2390000 -15.3950000 -13.7320000  34.8530000 -17.2060000 -12.4250000
  34.2290000 -17.9230000 -13.5270000  35.0080000 -18.3280000 -14.1790000
  33.5940000 -17.2470000 -14.1060000  33.3430000 -19.0590000 -12.9690000
  33.9260000 -19.6190000 -12.2330000  32.8790000 -20.0040000 -14.1050000
  32.2750000 -20.8190000 -13.6980000  33.7650000 -20.4340000 -14.5800000
  32.1050000 -19.2810000 -15.1050000  31.9760000 -19.8000000 -16.6280000
  33.2300000 -19.0990000 -17.3490000  33.2790000 -17.6660000 -17.5170000
  34.0120000 -17.2670000 -16.8120000  32.3100000 -17.2160000 -17.2890000
  33.7050000 -17.3210000 -18.9650000  34.6430000 -17.8320000 -19.1920000
  33.8840000 -16.2470000 -19.0230000  32.7560000 -17.6390000 -20.1000000
  32.6070000 -19.1090000 -20.3040000  33.5950000 -19.5450000 -20.4620000
  31.9680000 -19.2800000 -21.1720000  32.1480000 -19.5300000 -19.4080000
  31.4080000 -17.0410000 -19.8650000  31.5200000 -15.9680000 -19.7060000
  30.9720000 -17.5150000 -18.9840000  30.7840000 -17.2330000 -20.7390000
  33.3060000 -17.0560000 -21.3600000  33.3900000 -15.9750000 -21.2400000
  32.6250000 -17.2900000 -22.1790000  34.2880000 -17.4930000 -21.5500000
  32.1950000 -21.2720000 -16.6590000  30.7240000 -19.2560000 -17.2170000
  32.1820000 -18.4450000 -12.3390000  31.5450000 -19.0840000 -11.3420000
  31.8900000 -20.1600000 -10.8820000  30.3390000 -18.3090000 -10.8640000
  29.8220000 -17.9030000 -11.7360000  29.6520000 -18.9880000 -10.3540000
  30.7490000 -17.1570000  -9.9240000  31.1230000 -17.5680000  -8.9840000
  31.5730000 -16.6040000 -10.3790000  29.6080000 -16.1580000  -9.6470000
  29.9860000 -15.3670000  -8.9970000  29.3310000 -15.6770000 -10.5880000
  28.3330000 -16.7630000  -9.0230000  27.6140000 -15.9570000  -8.8600000
  27.8730000 -17.4500000  -9.7360000  28.5510000 -17.5070000  -7.6900000
  27.5800000 -17.8440000  -7.3220000  29.1510000 -18.4000000  -7.8720000
  29.2230000 -16.6460000  -6.5990000  30.2390000 -16.3880000  -6.9070000
  28.6690000 -15.7110000  -6.4910000  29.2810000 -17.3450000  -5.2270000
  29.7460000 -16.6670000  -4.5080000  28.2610000 -17.5200000  -4.8770000
  30.0830000 -18.6310000  -5.2840000  31.1560000 -18.4940000  -5.3960000
  29.5930000 -19.8670000  -5.2370000  30.2780000 -20.7080000  -5.3030000
  28.1350000 -20.2440000  -5.0600000  27.5740000 -19.4600000  -4.5460000
  27.6820000 -20.3760000  -6.0450000  27.9710000 -21.5690000  -4.2900000
  26.9060000 -21.7960000  -4.2060000  28.4200000 -22.3730000  -4.8770000
  28.5970000 -21.5830000  -2.8800000  28.4520000 -22.5770000  -2.4510000
  29.6750000 -21.4270000  -2.9580000  28.0000000 -20.5330000  -1.9220000
  28.2230000 -19.5310000  -2.2940000  26.9140000 -20.6450000  -1.8900000
  28.5720000 -20.6980000  -0.5020000  28.3450000 -21.7070000  -0.1510000
  29.6600000 -20.6150000  -0.5480000  28.0100000 -19.6910000   0.5220000
  26.9200000 -19.7350000   0.4880000  28.3090000 -20.0080000   1.5230000
  28.4580000 -18.2290000   0.3170000  28.1760000 -17.8890000  -0.6820000
  27.9210000 -17.6000000   1.0300000  29.9680000 -18.0160000   0.5250000
  30.2150000 -16.9560000   0.4280000  30.5460000 -18.5700000  -0.2180000
  30.2690000 -18.3480000   1.5200000  12.8280000 -32.4970000   0.9030000
  13.6710000 -32.9290000   1.4480000  12.3380000 -31.7660000   1.5480000
  13.2160000 -31.9830000   0.0210000  11.8410000 -33.6020000   0.4910000
  11.4780000 -34.1110000   1.3850000  12.3690000 -34.3400000  -0.1160000
  10.6470000 -33.0460000  -0.3050000  11.0180000 -32.5220000  -1.1890000
  10.1190000 -32.3130000   0.3090000   9.6610000 -34.1460000  -0.7460000
   9.2870000 -34.6800000   0.1290000  10.1910000 -34.8710000  -1.3680000
   8.4760000 -33.5530000  -1.5330000   8.8520000 -33.0800000  -2.4420000
   8.0160000 -32.7680000  -0.9290000   7.3770000 -34.5680000  -1.9020000
   6.6420000 -34.0720000  -2.5390000   6.8550000 -34.8690000  -0.9920000
   7.8780000 -35.8400000  -2.6100000   7.0080000 -36.4520000  -2.8570000
   8.4890000 -36.4190000  -1.9130000   8.6860000 -35.5870000  -3.8960000
   9.5610000 -34.9720000  -3.6740000   8.0640000 -35.0390000  -4.6070000
   9.1530000 -36.9170000  -4.5160000   8.2800000 -37.5180000  -4.7790000
   9.7130000 -37.4760000  -3.7630000  10.0480000 -36.7550000  -5.7580000
  10.3390000 -37.7490000  -6.1040000  10.9650000 -36.2320000  -5.4800000
   9.3610000 -36.0020000  -6.9120000   9.1650000 -34.9710000  -6.6130000
   8.4010000 -36.4770000  -7.1260000  10.2330000 -36.0010000  -8.1810000
  10.3630000 -37.0280000  -8.5290000  11.2230000 -35.6220000  -7.9230000
   9.6630000 -35.1460000  -9.3290000  10.3620000 -35.1850000 -10.1670000
   9.6060000 -34.1040000  -9.0060000   8.2690000 -35.6080000  -9.8010000
   7.5560000 -35.4890000  -8.9820000   8.2970000 -36.6710000 -10.0490000
   7.7480000 -34.8070000 -11.0110000   7.7630000 -33.7410000 -10.7730000
   6.7080000 -35.0750000 -11.2090000   8.5440000 -35.0470000 -12.2760000
   8.9860000 -36.1340000 -12.6090000   8.6700000 -33.9150000 -12.9990000
   9.4210000 -33.9280000 -14.2500000   8.9130000 -33.2520000 -14.9420000
   9.4340000 -34.9240000 -14.7000000  10.8640000 -33.4070000 -14.0320000
  10.8090000 -32.4560000 -13.4960000  11.5670000 -33.2000000 -15.3980000
  12.5410000 -32.7270000 -15.2510000  10.9580000 -32.5430000 -16.0240000
  11.7520000 -34.4690000 -16.0810000  12.2690000 -34.5280000 -17.6010000
  10.9140000 -34.3190000 -18.4300000   9.9590000 -35.3880000 -18.5390000
   9.6020000 -35.6450000 -17.5380000  10.4350000 -36.2700000 -18.9750000
   8.7710000 -34.9230000 -19.4120000   8.3130000 -34.0440000 -18.9550000
   8.0260000 -35.7200000 -19.4310000   9.0370000 -34.5650000 -20.8570000
   9.8070000 -35.6390000 -21.5540000  10.7880000 -35.7210000 -21.0840000
   9.9160000 -35.3640000 -22.6040000   9.2600000 -36.5790000 -21.4640000
   7.7290000 -34.3980000 -21.5600000   7.1590000 -33.6160000 -21.0570000
   7.1880000 -35.3450000 -21.5240000   7.9230000 -34.1150000 -22.5950000
   9.7850000 -33.2770000 -20.9740000   9.2040000 -32.4940000 -20.4840000
   9.9260000 -33.0480000 -22.0310000  10.7490000 -33.3970000 -20.4790000
  13.1430000 -33.3540000 -17.8470000  12.8040000 -35.8890000 -17.8680000
  11.6080000 -34.3790000 -13.2430000  12.7860000 -34.0150000 -12.7050000
  13.2160000 -32.8730000 -12.7130000  13.5220000 -35.1980000 -12.1150000
  12.8010000 -35.9760000 -11.8530000  14.1710000 -35.6120000 -12.8890000
  14.3620000 -34.8380000 -10.8730000  14.9750000 -35.7030000 -10.6110000
  15.0430000 -34.0190000 -11.1100000  13.4930000 -34.4670000  -9.6580000
  12.8240000 -33.6470000  -9.9280000  12.8760000 -35.3280000  -9.3950000
  14.3410000 -34.0570000  -8.4400000  15.0800000 -34.8360000  -8.2430000
  14.8950000 -33.1470000  -8.6780000  13.5190000 -33.8300000  -7.1550000
  13.0690000 -34.7760000  -6.8450000  14.2080000 -33.5290000  -6.3630000
  12.4150000 -32.7610000  -7.2990000  12.8690000 -31.8230000  -7.6250000
  11.7100000 -33.0650000  -8.0750000  11.6200000 -32.5150000  -6.0010000
  10.8410000 -31.7790000  -6.2090000  11.1060000 -33.4340000  -5.7120000
  12.5020000 -31.9870000  -4.8860000  12.7780000 -30.9410000  -4.9860000
  12.9390000 -32.6680000  -3.8310000  13.5630000 -32.1580000  -3.1010000
  12.6840000 -34.1300000  -3.5300000  12.1570000 -34.1990000  -2.5760000
  12.0510000 -34.5990000  -4.2860000  14.0090000 -34.9100000  -3.4340000
  14.5390000 -34.8290000  -4.3850000  14.6430000 -34.4530000  -2.6710000
  13.8230000 -36.4040000  -3.1030000  13.1940000 -36.8640000  -3.8680000
  14.7980000 -36.8960000  -3.1430000  13.2060000 -36.6270000  -1.7090000
  13.8010000 -36.0920000  -0.9660000  12.1990000 -36.2050000  -1.6820000
  13.1210000 -38.1050000  -1.2930000  14.1290000 -38.5210000  -1.2310000
  12.6880000 -38.1520000  -0.2920000  12.2660000 -38.9530000  -2.2530000
  11.3490000 -38.4080000  -2.4860000  12.8010000 -39.1070000  -3.1930000
  11.8770000 -40.3140000  -1.6520000  11.2870000 -40.1340000  -0.7510000
  11.2330000 -40.8470000  -2.3540000  13.0760000 -41.2110000  -1.3090000
  12.7270000 -42.1600000  -0.8950000  13.7280000 -40.7370000  -0.5720000
  13.6520000 -41.4240000  -2.2110000   1.4400000  30.3240000  -2.0870000
   1.0390000  30.1180000  -1.0930000   2.0550000  29.4760000  -2.3940000
   0.6050000  30.4200000  -2.7850000   2.2730000  31.6150000  -2.0650000
   3.0790000  31.5090000  -1.3360000   1.6430000  32.4450000  -1.7370000
   2.8750000  31.9380000  -3.4430000   2.0760000  32.0160000  -4.1820000
   3.5270000  31.1150000  -3.7430000   3.6840000  33.2460000  -3.4290000
   4.4180000  33.2040000  -2.6210000   3.0170000  34.0840000  -3.2140000
   4.4100000  33.4980000  -4.7630000   3.6690000  33.6790000  -5.5440000
   4.9760000  32.6070000  -5.0420000   5.3700000  34.6990000  -4.6720000
   6.1680000  34.4760000  -3.9620000   4.8220000  35.5570000  -4.2770000
   5.9870000  35.0920000  -6.0280000   6.5360000  36.0270000  -5.8980000
   5.1790000  35.2880000  -6.7360000   6.9430000  34.0320000  -6.6110000
   6.4000000  33.1050000  -6.8100000   7.7090000  33.8030000  -5.8680000
   7.6400000  34.5120000  -7.9010000   8.4210000  33.7970000  -8.1700000
   8.1430000  35.4580000  -7.6900000   6.6990000  34.7150000  -9.1070000
   7.2490000  35.2450000  -9.8870000   5.8710000  35.3670000  -8.8220000
   6.1330000  33.4110000  -9.7100000   5.3810000  33.6860000 -10.4530000
   5.6180000  32.8300000  -8.9420000   7.2260000  32.5480000 -10.3760000
   7.8590000  32.1090000  -9.6020000   7.8660000  33.1920000 -10.9820000
   6.6930000  31.4150000 -11.2780000   6.1120000  30.7110000 -10.6780000
   7.5510000  30.8700000 -11.6760000   5.8380000  31.9290000 -12.4570000
   6.3010000  32.8340000 -12.8550000   4.8450000  32.2110000 -12.1000000
   5.7040000  30.9220000 -13.6200000   6.6990000  30.6600000 -13.9850000
   5.1820000  31.4010000 -14.4510000   4.9630000  29.6480000 -13.2760000
   4.2220000  29.5140000 -12.3170000   5.2380000  28.6700000 -14.1600000
   4.5180000  27.4020000 -14.1190000   4.3380000  27.1070000 -13.0820000
   5.1590000  26.6410000 -14.5710000   3.1740000  27.4260000 -14.9150000
   2.6770000  26.4690000 -14.7430000   3.3190000  27.5240000 -16.4590000
   2.3680000  27.8520000 -16.8880000   3.5280000  26.5240000 -16.8460000
   4.4010000  28.3920000 -16.9020000   4.1540000  29.7500000 -17.7500000
   3.7180000  30.8410000 -16.6410000   2.3360000  31.0830000 -16.3150000
   2.2820000  31.4560000 -15.2900000   1.7750000  30.1460000 -16.3650000
   1.7270000  32.1230000 -17.2900000   0.6900000  32.2990000 -17.0010000
   1.7280000  31.7110000 -18.3000000   2.3710000  33.4860000 -17.3920000
   2.6740000  34.0570000 -16.0470000   1.7530000  34.0860000 -15.4620000
   3.0720000  35.0640000 -16.1790000   3.4190000  33.4200000 -15.5680000
   3.6310000  33.4370000 -18.1890000   3.4000000  33.0450000 -19.1810000
   4.3330000  32.7750000 -17.6790000   4.0420000  34.4450000 -18.2590000
   1.4300000  34.4130000 -18.0890000   1.2080000  34.0030000 -19.0750000
   1.9100000  35.3880000 -18.1820000   0.5170000  34.4930000 -17.4980000
   5.4620000  30.1860000 -18.3150000   3.0260000  29.5280000 -18.6990000
   2.2950000  28.4830000 -14.4350000   1.6050000  28.2600000 -13.2960000
   1.5760000  27.1840000 -12.7190000   0.8680000  29.4900000 -12.8180000
   1.3370000  30.3740000 -13.2540000  -0.1640000  29.4530000 -13.1740000
   0.9090000  29.5960000 -11.2820000   0.3870000  28.7440000 -10.8420000
   1.9490000  29.5420000 -10.9520000   0.2730000  30.8950000 -10.7600000
   0.7090000  31.7530000 -11.2770000  -0.7930000  30.8790000 -10.9950000
   0.4540000  31.0640000  -9.2390000  -0.2600000  31.8080000  -8.8800000
   0.2120000  30.1200000  -8.7470000   1.8790000  31.5220000  -8.8630000
   2.6180000  30.9070000  -9.3830000   2.0200000  32.5440000  -9.2220000
   2.1790000  31.4840000  -7.3500000   3.1650000  31.9240000  -7.1880000
   1.4630000  32.1180000  -6.8230000   2.1590000  30.0740000  -6.7180000
   2.4570000  30.1410000  -5.6700000   1.1360000  29.6930000  -6.7180000
   3.0550000  29.0920000  -7.4480000   2.5350000  28.3790000  -8.0830000
   4.3820000  29.0580000  -7.3840000   4.9230000  28.3130000  -7.9630000
   5.2490000  29.9750000  -6.5470000   5.4640000  30.8810000  -7.1170000
   4.7330000  30.2680000  -5.6300000   6.5860000  29.2960000  -6.2010000
   6.4020000  28.3970000  -5.6080000   7.0600000  28.9740000  -7.1310000
   7.5680000  30.2180000  -5.4520000   8.5540000  29.7490000  -5.4680000
   7.6580000  31.1640000  -5.9890000   7.1820000  30.4870000  -3.9840000
   6.1960000  30.9550000  -3.9410000   7.1190000  29.5350000  -3.4540000
   8.2170000  31.3920000  -3.2860000   9.2130000  30.9780000  -3.4510000
   8.2010000  32.3810000  -3.7480000   7.9980000  31.5350000  -1.7660000
   8.0390000  30.5460000  -1.3050000   8.8220000  32.1190000  -1.3500000
   6.6680000  32.2090000  -1.3870000   6.6060000  33.1820000  -1.8790000
   5.8340000  31.6010000  -1.7440000   6.5230000  32.4070000   0.1310000
   5.5660000  32.8810000   0.3600000   7.3240000  33.0430000   0.5120000
   6.5660000  31.4470000   0.6500000  23.5730000  30.2100000   2.1960000
  24.6310000  29.9550000   2.1040000  22.9770000  29.3830000   1.8050000
  23.3380000  30.3280000   3.2560000  23.2660000  31.5140000   1.4400000
  23.8140000  32.3320000   1.9120000  22.2020000  31.7410000   1.5370000
  23.6380000  31.4650000  -0.0540000  24.7060000  31.2660000  -0.1560000
  23.4500000  32.4490000  -0.4890000  22.8430000  30.4130000  -0.8500000
  21.7760000  30.5570000  -0.6720000  23.1040000  29.4120000  -0.4990000
  23.1190000  30.5090000  -2.3610000  24.1860000  30.3640000  -2.5470000
  22.8580000  31.5100000  -2.7110000  22.3130000  29.4660000  -3.1550000
  21.2550000  29.5630000  -2.9060000  22.6310000  28.4650000  -2.8570000
  22.4890000  29.6250000  -4.6760000  23.5430000  29.5100000  -4.9340000
  22.1860000  30.6350000  -4.9580000  21.6590000  28.5910000  -5.4620000
  20.6080000  28.6770000  -5.1800000  21.9810000  27.5870000  -5.1750000
  21.7970000  28.7260000  -6.9930000  21.1860000  27.9550000  -7.4670000
  22.8340000  28.5260000  -7.2690000  21.3990000  30.1010000  -7.5670000
  21.5220000  30.0600000  -8.6520000  22.0900000  30.8620000  -7.1990000
  19.9520000  30.5210000  -7.2330000  19.8130000  30.5100000  -6.1500000
  19.2540000  29.7930000  -7.6520000  19.6030000  31.9370000  -7.7330000
  20.2720000  32.6480000  -7.2430000  18.5890000  32.1860000  -7.4120000
  19.7030000  32.1420000  -9.2560000  20.7210000  31.9300000  -9.5900000
  19.5140000  33.1950000  -9.4720000  18.6970000  31.2850000 -10.0490000
  17.6890000  31.5310000  -9.7090000  18.8540000  30.2240000  -9.8430000
  18.7730000  31.5280000 -11.5710000  18.7230000  32.5990000 -11.7780000
  17.9060000  31.0710000 -12.0520000  20.0130000  30.9570000 -12.2240000
  20.7720000  30.1570000 -11.7050000  20.1660000  31.4340000 -13.4740000
  21.1000000  30.7700000 -14.3780000  21.9370000  30.3230000 -13.8360000
  21.5080000  31.5260000 -15.0530000  20.3560000  29.7060000 -15.2330000
  21.0560000  29.2610000 -15.9440000  19.1930000  30.3730000 -16.0080000
  19.4940000  31.3600000 -16.3670000  18.3520000  30.5080000 -15.3230000
  18.7480000  29.5620000 -17.1350000  19.5570000  29.5150000 -18.5370000
  20.5310000  28.2430000 -18.3620000  20.0380000  26.8930000 -18.4780000
  19.0570000  26.8230000 -18.0000000  20.7210000  26.2280000 -17.9430000
  19.9420000  26.4590000 -19.9640000  19.1930000  27.0690000 -20.4710000
  19.6060000  25.4220000 -19.9960000  21.1810000  26.5220000 -20.8270000
  20.9250000  25.7670000 -22.0890000  20.7180000  24.7250000 -21.8400000
  21.8120000  25.8340000 -22.7210000  20.0690000  26.2140000 -22.5950000
  21.5130000  27.9280000 -21.2040000  21.7480000  28.4850000 -20.2950000
  20.6450000  28.3680000 -21.6960000  22.3720000  27.9210000 -21.8770000
  22.3590000  25.9100000 -20.1440000  22.5910000  26.5150000 -19.2660000
  23.2000000  25.9100000 -20.8390000  22.1060000  24.8890000 -19.8560000
  18.5830000  29.2500000 -19.6300000  20.4240000  30.7200000 -18.6370000
  19.7730000  28.6730000 -14.3840000  20.5640000  27.6900000 -13.9140000
  21.7580000  27.6100000 -14.1390000  19.7970000  26.6760000 -13.0970000
  18.8100000  26.5350000 -13.5420000  20.3210000  25.7190000 -13.1380000
  19.6480000  27.1290000 -11.6320000  20.6390000  27.2800000 -11.1980000
  19.1260000  28.0880000 -11.6010000  18.8600000  26.1130000 -10.7870000
  17.8420000  26.0480000 -11.1780000  19.3130000  25.1260000 -10.8910000
  18.8270000  26.4940000  -9.2920000  19.8450000  26.4510000  -8.8990000
  18.4850000  27.5250000  -9.1780000  17.9370000  25.5490000  -8.4580000
  18.1710000  24.5170000  -8.7280000  18.1860000  25.6620000  -7.4010000
  16.4240000  25.7920000  -8.6510000  16.1990000  25.8780000  -9.7170000
  15.8770000  24.9210000  -8.2870000  15.8960000  27.0440000  -7.9210000
  16.5070000  27.9140000  -8.1740000  14.8870000  27.2420000  -8.2880000
  15.8270000  26.8060000  -6.4250000  15.3550000  25.8680000  -6.1440000
  16.2890000  27.5970000  -5.4600000  16.1770000  27.2720000  -4.4290000
  16.9670000  28.9440000  -5.6100000  18.0120000  28.8430000  -5.3130000
  16.9490000  29.3020000  -6.6410000  16.2970000  29.9850000  -4.6920000
  15.2980000  30.2090000  -5.0720000  16.1780000  29.5510000  -3.6970000
  17.1140000  31.2880000  -4.5810000  18.0820000  31.0630000  -4.1290000
  17.3120000  31.6690000  -5.5850000  16.4230000  32.4050000  -3.7690000
  17.1140000  33.2470000  -3.6820000  15.5600000  32.7660000  -4.3320000
  15.9460000  32.0070000  -2.3560000  15.5480000  32.8960000  -1.8630000
  15.1180000  31.3000000  -2.4440000  17.0390000  31.3910000  -1.4610000
  17.3720000  30.4450000  -1.8940000  17.9040000  32.0560000  -1.4220000
  16.5290000  31.1370000  -0.0300000  16.3800000  32.0930000   0.4760000
  15.5610000  30.6330000  -0.0680000  17.4980000  30.2700000   0.7880000
  17.1330000  30.1540000   1.8100000  18.4920000  30.7220000   0.8220000
  17.5850000  29.2790000   0.3370000  -1.1910000  33.8010000   1.2890000
  -0.8640000  32.9070000   1.8240000  -2.0560000  33.5450000   0.6740000
  -1.4970000  34.5480000   2.0250000  -0.0480000  34.3480000   0.4230000
   0.3240000  33.5600000  -0.2350000   0.7730000  34.6240000   1.0880000
  -0.4580000  35.5810000  -0.4030000   0.4450000  36.1130000  -0.7090000
  -1.0230000  36.2630000   0.2360000  -1.2820000  35.2620000  -1.6660000
  -1.6750000  36.2010000  -2.0610000  -2.1430000  34.6400000  -1.4100000
  -0.4500000  34.5810000  -2.7710000  -0.2030000  33.5610000  -2.4690000
   0.4890000  35.1240000  -2.8990000  -1.1910000  34.5460000  -4.1190000
  -1.4650000  35.5640000  -4.4020000  -2.1140000  33.9740000  -4.0040000
  -0.3270000  33.9340000  -5.2380000  -0.0440000  32.9150000  -4.9640000
   0.6000000  34.5060000  -5.3220000  -1.0220000  33.9320000  -6.6160000
  -0.3290000  33.5290000  -7.3580000  -1.2260000  34.9650000  -6.9060000
  -2.3430000  33.1380000  -6.6840000  -2.7230000  33.2020000  -7.7060000
  -3.0850000  33.6140000  -6.0390000  -2.2040000  31.6540000  -6.2830000
  -1.7740000  31.5890000  -5.2810000  -1.5050000  31.1540000  -6.9570000
  -3.5490000  30.9000000  -6.2650000  -4.2070000  31.3860000  -5.5420000
  -3.3770000  29.8850000  -5.9030000  -4.2810000  30.8290000  -7.6210000
  -4.4910000  31.8380000  -7.9800000  -5.2460000  30.3420000  -7.4670000
  -3.5030000  30.0490000  -8.6980000  -3.3400000  29.0250000  -8.3550000
  -2.5230000  30.5050000  -8.8520000  -4.2520000  30.0240000 -10.0400000
  -4.3390000  31.0510000 -10.4020000  -5.2640000  29.6400000  -9.8940000
  -3.5320000  29.1680000 -11.0970000  -3.6620000  28.1060000 -10.8760000
  -2.4600000  29.3760000 -11.0750000  -4.0580000  29.4580000 -12.4820000
  -5.1800000  29.1660000 -12.8600000  -3.1420000  30.0880000 -13.2470000
  -3.4880000  30.4360000 -14.6220000  -3.9580000  29.5830000 -15.1180000
  -2.5620000  30.6740000 -15.1520000  -4.4210000  31.6760000 -14.6720000
  -5.3560000  31.4510000 -14.1530000  -4.7900000  32.0560000 -16.1230000
  -5.3500000  32.9940000 -16.1100000  -5.4220000  31.2750000 -16.5530000
  -3.6080000  32.2120000 -16.9520000  -3.7350000  32.6600000 -18.4940000
  -4.3130000  34.1560000 -18.3680000  -3.4890000  35.2330000 -17.8840000
  -2.7750000  34.8470000 -17.1520000  -4.1280000  35.9630000 -17.3800000
  -2.7460000  35.9030000 -19.0630000  -2.1020000  35.1670000 -19.5480000
  -2.1140000  36.6960000 -18.6600000  -3.5610000  36.5420000 -20.1620000
  -4.1940000  35.5150000 -21.0410000  -3.4090000  34.8730000 -21.4450000
  -4.7280000  36.0200000 -21.8480000  -4.8850000  34.9230000 -20.4390000
  -4.6250000  37.4360000 -19.6120000  -4.1540000  38.1680000 -18.9550000
  -5.3360000  36.8240000 -19.0540000  -5.1270000  37.9340000 -20.4430000
  -2.6490000  37.3700000 -21.0040000  -2.1950000  38.1330000 -20.3710000
  -3.2320000  37.8330000 -21.8010000  -1.8810000  36.7200000 -21.4270000
  -2.3710000  32.7120000 -19.0860000  -4.7730000  31.8230000 -19.1530000
  -3.7380000  32.8070000 -14.0570000  -4.0900000  33.1870000 -12.8140000
  -5.0510000  32.7510000 -12.2030000  -3.1360000  34.2010000 -12.2330000
  -2.8230000  34.8910000 -13.0190000  -3.6580000  34.7720000 -11.4620000
  -1.9070000  33.4920000 -11.6280000  -2.2570000  32.6730000 -10.9970000
  -1.3270000  33.0420000 -12.4370000  -0.9740000  34.3790000 -10.7750000
  -1.5050000  34.6990000  -9.8760000  -0.1540000  33.7490000 -10.4250000
  -0.3440000  35.5870000 -11.5040000   0.6140000  35.8120000 -11.0300000
  -0.1140000  35.2830000 -12.5270000  -1.1760000  36.8900000 -11.5480000
  -0.8610000  37.4530000 -12.4290000  -2.2340000  36.6650000 -11.6970000
  -1.0080000  37.8270000 -10.3280000   0.0380000  38.1320000 -10.2620000
  -1.5840000  38.7360000 -10.5160000  -1.4380000  37.2560000  -8.9620000
  -0.7680000  36.4340000  -8.7020000  -1.3010000  38.0280000  -8.2030000
  -2.8720000  36.7590000  -8.9890000  -3.1140000  36.0970000  -9.8170000
  -3.8350000  37.0920000  -8.1390000  -4.8330000  36.6850000  -8.2840000
  -3.6710000  37.9680000  -6.9170000  -2.6820000  37.8470000  -6.4700000
  -3.7740000  39.0110000  -7.2240000  -4.7540000  37.6640000  -5.8660000
  -4.7170000  38.4290000  -5.0880000  -5.7350000  37.7370000  -6.3400000
  -4.6060000  36.2790000  -5.2080000  -4.5970000  35.5040000  -5.9770000
  -3.6530000  36.2320000  -4.6780000  -5.7540000  35.9970000  -4.2220000
  -5.7830000  36.7890000  -3.4700000  -6.7010000  36.0230000  -4.7640000
  -5.6100000  34.6360000  -3.5150000  -5.4770000  33.8520000  -4.2640000
  -4.7170000  34.6480000  -2.8870000  -6.8440000  34.3060000  -2.6540000
  -6.9920000  35.0940000  -1.9120000  -7.7290000  34.2880000  -3.2930000
  -6.7160000  32.9520000  -1.9320000  -6.4800000  32.1740000  -2.6620000
  -5.8890000  32.9970000  -1.2210000  -8.0070000  32.5650000  -1.1940000
  -7.8760000  31.6170000  -0.6680000  -8.8290000  32.4490000  -1.9040000
  -8.2780000  33.3320000  -0.4660000
