c11
    11
   0.0000000   0.0000000   0.0000000   1.5400000   0.0000000   0.0000000
   2.0414000   1.4561000   0.0000000   3.5814000   1.4561000   0.0000000
   4.0827000   2.9122000   0.0000000   5.6227000   2.9122000   0.0000000
   6.1241000   4.3683000   0.0000000   7.6641000   4.3683000   0.0000000
   8.1655000   5.8244000   0.0000000   9.7055000   5.8244000   0.0000000
  10.2069000   7.2805000   0.0000000
